       N       E                     dE             d eps       ncg     rms          rms(c)
DAV:   1     0.333067487258E+03    0.33307E+03   -0.23352E+04  3964   0.317E+03
DAV:   2    -0.220705134928E+02   -0.35514E+03   -0.32920E+03  3560   0.669E+02
DAV:   3    -0.532425669882E+02   -0.31172E+02   -0.30552E+02  3644   0.103E+02
DAV:   4    -0.564196765709E+02   -0.31771E+01   -0.31724E+01  4464   0.252E+01
DAV:   5    -0.564861726181E+02   -0.66496E-01   -0.66472E-01  3856   0.505E+00    0.310E+01
RMM:   6    -0.534627655116E+02    0.30234E+01   -0.32303E+00  4415   0.565E+00    0.178E+01
RMM:   7    -0.523910297208E+02    0.10717E+01   -0.41752E+00  4650   0.703E+00    0.106E+00
RMM:   8    -0.522775448569E+02    0.11348E+00   -0.17167E-01  4874   0.181E+00    0.559E-01
RMM:   9    -0.522740048414E+02    0.35400E-02   -0.10011E-02  5549   0.607E-01    0.116E-01
RMM:  10    -0.522740313728E+02   -0.26531E-04   -0.26993E-03  5526   0.369E-01    0.279E-02
RMM:  11    -0.522741345729E+02   -0.10320E-03   -0.13082E-03  5745   0.256E-01    0.219E-02
RMM:  12    -0.522741837781E+02   -0.49205E-04   -0.54662E-04  5343   0.194E-01    0.128E-02
RMM:  13    -0.522742138119E+02   -0.30034E-04   -0.33752E-04  4848   0.155E-01    0.369E-03
RMM:  14    -0.522742304204E+02   -0.16609E-04   -0.18035E-04  4345   0.129E-01    0.322E-03
RMM:  15    -0.522742392292E+02   -0.88087E-05   -0.10531E-04  4059   0.113E-01    0.102E-03
RMM:  16    -0.522742441491E+02   -0.49199E-05   -0.63998E-05  3579   0.104E-01    0.907E-04
RMM:  17    -0.522742457875E+02   -0.16384E-05   -0.32860E-05  3335   0.100E-01    0.962E-04
RMM:  18    -0.522742465930E+02   -0.80557E-06   -0.26130E-05  3180   0.101E-01    0.112E-03
RMM:  19    -0.522742472623E+02   -0.66932E-06   -0.24582E-05  3099   0.102E-01    0.102E-03
RMM:  20    -0.522742475894E+02   -0.32702E-06   -0.22240E-05  3001   0.105E-01    0.140E-03
RMM:  21    -0.522742477318E+02   -0.14247E-06   -0.20888E-05  2941   0.106E-01    0.171E-03
RMM:  22    -0.522742481610E+02   -0.42915E-06   -0.20395E-05  2883   0.107E-01    0.101E-03
RMM:  23    -0.522742481461E+02    0.14903E-07   -0.19776E-05  2795   0.108E-01    0.904E-04
RMM:  24    -0.522742488222E+02   -0.67612E-06   -0.25813E-05  2813   0.109E-01    0.962E-04
RMM:  25    -0.522742492258E+02   -0.40355E-06   -0.21756E-05  2713   0.106E-01    0.951E-04
RMM:  26    -0.522742494162E+02   -0.19040E-06   -0.18815E-05  2655   0.105E-01    0.102E-03
RMM:  27    -0.522742497290E+02   -0.31281E-06   -0.19966E-05  2605   0.105E-01    0.109E-03
RMM:  28    -0.522742499474E+02   -0.21844E-06   -0.18134E-05  2567   0.104E-01    0.113E-03
RMM:  29    -0.522742502529E+02   -0.30551E-06   -0.18466E-05  2554   0.104E-01    0.120E-03
RMM:  30    -0.522742504099E+02   -0.15693E-06   -0.16297E-05  2530   0.102E-01    0.123E-03
RMM:  31    -0.522742505792E+02   -0.16930E-06   -0.16167E-05  2495   0.103E-01    0.128E-03
RMM:  32    -0.522742504774E+02    0.10174E-06   -0.12459E-05  2485   0.102E-01    0.129E-03
RMM:  33    -0.522742503650E+02    0.11245E-06   -0.12609E-05  2446   0.103E-01    0.129E-03
RMM:  34    -0.522742500042E+02    0.36072E-06   -0.10187E-05  2436   0.103E-01    0.126E-03
RMM:  35    -0.522742500859E+02   -0.81668E-07   -0.15574E-05  2470   0.106E-01    0.136E-03
RMM:  36    -0.522742501406E+02   -0.54686E-07   -0.14591E-05  2437   0.105E-01    0.135E-03
RMM:  37    -0.522742500959E+02    0.44672E-07   -0.13485E-05  2419   0.106E-01    0.131E-03
RMM:  38    -0.522742501992E+02   -0.10324E-06   -0.15444E-05  2421   0.107E-01    0.132E-03
RMM:  39    -0.522742501997E+02   -0.50568E-09   -0.13425E-05  2449   0.106E-01    0.131E-03
RMM:  40    -0.522742502727E+02   -0.73033E-07   -0.13992E-05  2419   0.105E-01    0.131E-03
RMM:  41    -0.522742503394E+02   -0.66666E-07   -0.13476E-05  2406   0.105E-01    0.133E-03
RMM:  42    -0.522742502502E+02    0.89130E-07   -0.11339E-05  2377   0.104E-01    0.132E-03
RMM:  43    -0.522742502679E+02   -0.17661E-07   -0.12477E-05  2399   0.104E-01    0.131E-03
RMM:  44    -0.522742502337E+02    0.34186E-07   -0.11707E-05  2393   0.104E-01    0.133E-03
RMM:  45    -0.522742501250E+02    0.10872E-06   -0.11309E-05  2362   0.105E-01    0.130E-03
RMM:  46    -0.522742500607E+02    0.64340E-07   -0.11857E-05  2386   0.106E-01    0.132E-03
RMM:  47    -0.522742500526E+02    0.80427E-08   -0.12202E-05  2405   0.106E-01    0.134E-03
RMM:  48    -0.522742499093E+02    0.14326E-06   -0.11306E-05  2389   0.107E-01    0.137E-03
RMM:  49    -0.522742499609E+02   -0.51510E-07   -0.12821E-05  2394   0.107E-01    0.137E-03
RMM:  50    -0.522742499487E+02    0.12130E-07   -0.12053E-05  2393   0.107E-01    0.137E-03
RMM:  51    -0.522742501215E+02   -0.17280E-06   -0.13744E-05  2422   0.106E-01    0.139E-03
RMM:  52    -0.522742503262E+02   -0.20462E-06   -0.13028E-05  2426   0.105E-01    0.143E-03
RMM:  53    -0.522742504295E+02   -0.10331E-06   -0.11745E-05  2399   0.104E-01    0.150E-03
RMM:  54    -0.522742504708E+02   -0.41327E-07   -0.10829E-05  2406   0.103E-01    0.153E-03
RMM:  55    -0.522742504598E+02    0.11031E-07   -0.10485E-05  2448   0.104E-01    0.157E-03
RMM:  56    -0.522742506191E+02   -0.15930E-06   -0.12305E-05  2440   0.105E-01    0.153E-03
RMM:  57    -0.522742507474E+02   -0.12838E-06   -0.12430E-05  2480   0.105E-01    0.158E-03
RMM:  58    -0.522742510244E+02   -0.27692E-06   -0.12892E-05  2478   0.103E-01    0.162E-03
RMM:  59    -0.522742508827E+02    0.14166E-06   -0.77300E-06  2447   0.101E-01
   1 F= 0.22733543E+01 E0= 0.22733543E+01  d E =-.860026E-11
