       N       E                     dE             d eps       ncg     rms          rms(c)
DAV:   1     0.330508888260E+03    0.33051E+03   -0.23297E+04  3992   0.321E+03
DAV:   2    -0.227613531141E+02   -0.35327E+03   -0.32808E+03  3508   0.670E+02
DAV:   3    -0.530933876284E+02   -0.30332E+02   -0.29747E+02  3640   0.102E+02
DAV:   4    -0.562301722097E+02   -0.31368E+01   -0.31327E+01  4456   0.250E+01
DAV:   5    -0.562952041985E+02   -0.65032E-01   -0.65007E-01  3856   0.499E+00    0.312E+01
RMM:   6    -0.533037873135E+02    0.29914E+01   -0.32736E+00  3674   0.561E+00    0.179E+01
RMM:   7    -0.522261332850E+02    0.10777E+01   -0.40814E+00  3829   0.703E+00    0.106E+00
RMM:   8    -0.521206589849E+02    0.10547E+00   -0.16165E-01  3897   0.177E+00    0.545E-01
RMM:   9    -0.521178401452E+02    0.28188E-02   -0.95151E-03  4434   0.578E-01    0.117E-01
RMM:  10    -0.521178733955E+02   -0.33250E-04   -0.27345E-03  4395   0.360E-01    0.304E-02
RMM:  11    -0.521179688952E+02   -0.95500E-04   -0.12563E-03  4495   0.250E-01    0.219E-02
RMM:  12    -0.521180196237E+02   -0.50728E-04   -0.57417E-04  4199   0.194E-01    0.132E-02
RMM:  13    -0.521180506605E+02   -0.31037E-04   -0.34643E-04  3733   0.153E-01    0.404E-03
RMM:  14    -0.521180661934E+02   -0.15533E-04   -0.16571E-04  3297   0.126E-01    0.301E-03
RMM:  15    -0.521180750684E+02   -0.88750E-05   -0.10745E-04  3114   0.111E-01    0.234E-03
RMM:  16    -0.521180790911E+02   -0.40226E-05   -0.52463E-05  2597   0.100E-01    0.131E-03
RMM:  17    -0.521180804433E+02   -0.13522E-05   -0.29262E-05  2482   0.983E-02    0.164E-03
RMM:  18    -0.521180811776E+02   -0.73431E-06   -0.24970E-05  2447   0.997E-02    0.167E-03
RMM:  19    -0.521180813819E+02   -0.20424E-06   -0.19914E-05  2370   0.101E-01    0.176E-03
RMM:  20    -0.521180812637E+02    0.11818E-06   -0.17903E-05  2388   0.103E-01    0.150E-03
RMM:  21    -0.521180815221E+02   -0.25839E-06   -0.22160E-05  2417   0.106E-01    0.149E-03
RMM:  22    -0.521180821025E+02   -0.58037E-06   -0.24933E-05  2429   0.106E-01    0.145E-03
RMM:  23    -0.521180825574E+02   -0.45494E-06   -0.22476E-05  2392   0.105E-01    0.158E-03
RMM:  24    -0.521180827089E+02   -0.15155E-06   -0.18726E-05  2386   0.104E-01    0.149E-03
RMM:  25    -0.521180831834E+02   -0.47441E-06   -0.21933E-05  2401   0.105E-01    0.161E-03
RMM:  26    -0.521180836683E+02   -0.48492E-06   -0.20789E-05  2412   0.103E-01    0.161E-03
RMM:  27    -0.521180840296E+02   -0.36130E-06   -0.18774E-05  2395   0.101E-01    0.163E-03
RMM:  28    -0.521180842649E+02   -0.23535E-06   -0.16883E-05  2365   0.100E-01    0.182E-03
RMM:  29    -0.521180841093E+02    0.15563E-06   -0.12597E-05  2309   0.995E-02    0.173E-03
RMM:  30    -0.521180838259E+02    0.28335E-06   -0.12405E-05  2362   0.102E-01    0.152E-03
RMM:  31    -0.521180836848E+02    0.14111E-06   -0.13745E-05  2346   0.103E-01    0.178E-03
RMM:  32    -0.521180837245E+02   -0.39713E-07   -0.15153E-05  2389   0.104E-01    0.181E-03
RMM:  33    -0.521180835270E+02    0.19754E-06   -0.12307E-05  2335   0.104E-01    0.186E-03
RMM:  34    -0.521180835316E+02   -0.45575E-08   -0.14604E-05  2380   0.105E-01    0.185E-03
RMM:  35    -0.521180832833E+02    0.24828E-06   -0.11273E-05  2360   0.105E-01    0.182E-03
RMM:  36    -0.521180834072E+02   -0.12389E-06   -0.15621E-05  2384   0.107E-01    0.183E-03
RMM:  37    -0.521180836799E+02   -0.27269E-06   -0.16851E-05  2401   0.106E-01    0.182E-03
RMM:  38    -0.521180840051E+02   -0.32527E-06   -0.16336E-05  2411   0.105E-01    0.187E-03
RMM:  39    -0.521180837971E+02    0.20808E-06   -0.10347E-05  2360   0.104E-01    0.189E-03
RMM:  40    -0.521180836348E+02    0.16223E-06   -0.11560E-05  2353   0.105E-01    0.189E-03
RMM:  41    -0.521180838735E+02   -0.23866E-06   -0.15849E-05  2405   0.106E-01    0.192E-03
RMM:  42    -0.521180838733E+02    0.22646E-09   -0.11579E-05  2382   0.104E-01    0.195E-03
RMM:  43    -0.521180836917E+02    0.18159E-06   -0.98706E-06  2373   0.104E-01
   1 F= 0.22765982E+01 E0= 0.22765982E+01  d E =0.227660E+01
       N       E                     dE             d eps       ncg     rms          rms(c)
DAV:   1    -0.521974182609E+02   -0.79334E-01   -0.55074E-02  3720   0.290E+00    0.180E-01
RMM:   2    -0.521977423007E+02   -0.32404E-03   -0.53226E-03  3942   0.498E-01    0.992E-02
RMM:   3    -0.521976591928E+02    0.83108E-04   -0.62677E-04  3940   0.213E-01    0.145E-02
RMM:   4    -0.521976701310E+02   -0.10938E-04   -0.15512E-04  2953   0.133E-01    0.118E-02
RMM:   5    -0.521976727728E+02   -0.26418E-05   -0.62216E-05  2820   0.114E-01    0.699E-03
RMM:   6    -0.521976758087E+02   -0.30359E-05   -0.60259E-05  2571   0.108E-01    0.207E-03
RMM:   7    -0.521976772547E+02   -0.14461E-05   -0.31069E-05  2409   0.102E-01    0.185E-03
RMM:   8    -0.521976776927E+02   -0.43800E-06   -0.23693E-05  2371   0.103E-01    0.147E-03
RMM:   9    -0.521976780314E+02   -0.33862E-06   -0.24441E-05  2372   0.105E-01    0.383E-04
RMM:  10    -0.521976785953E+02   -0.56392E-06   -0.25920E-05  2395   0.105E-01    0.231E-04
RMM:  11    -0.521976787549E+02   -0.15960E-06   -0.20298E-05  2355   0.104E-01    0.206E-04
RMM:  12    -0.521976799409E+02   -0.11860E-05   -0.30327E-05  2366   0.103E-01    0.689E-04
RMM:  13    -0.521976818000E+02   -0.18591E-05   -0.33701E-05  2404   0.987E-02    0.170E-03
RMM:  14    -0.521976833731E+02   -0.15731E-05   -0.28585E-05  2427   0.947E-02    0.235E-03
RMM:  15    -0.521976840843E+02   -0.71123E-06   -0.17899E-05  2321   0.908E-02    0.267E-03
RMM:  16    -0.521976842838E+02   -0.19944E-06   -0.12565E-05  2290   0.904E-02    0.277E-03
RMM:  17    -0.521976842947E+02   -0.10927E-07   -0.11144E-05  2263   0.927E-02    0.303E-03
RMM:  18    -0.521976838850E+02    0.40966E-06   -0.78586E-06  2210   0.957E-02
   2 F= 0.22746499E+01 E0= 0.22746499E+01  d E =-.194827E-02
       N       E                     dE             d eps       ncg     rms          rms(c)
DAV:   1    -0.522451315746E+02   -0.47447E-01   -0.11290E-02  3468   0.879E-01    0.109E-01
RMM:   2    -0.522451082752E+02    0.23299E-04   -0.81530E-04  3935   0.225E-01    0.551E-02
RMM:   3    -0.522450793116E+02    0.28964E-04   -0.21002E-04  3973   0.125E-01    0.807E-03
RMM:   4    -0.522450815136E+02   -0.22020E-05   -0.40993E-05  2528   0.779E-02    0.610E-03
RMM:   5    -0.522450812036E+02    0.31005E-06   -0.21175E-05  2326   0.737E-02    0.157E-03
RMM:   6    -0.522450814519E+02   -0.24830E-06   -0.15315E-05  2303   0.744E-02    0.988E-04
RMM:   7    -0.522450818566E+02   -0.40476E-06   -0.15486E-05  2304   0.757E-02    0.491E-04
RMM:   8    -0.522450820073E+02   -0.15064E-06   -0.12680E-05  2312   0.775E-02    0.408E-04
RMM:   9    -0.522450817777E+02    0.22956E-06   -0.88002E-06  2326   0.797E-02
   3 F= 0.22740544E+01 E0= 0.22740544E+01  d E =-.595482E-03
       N       E                     dE             d eps       ncg     rms          rms(c)
DAV:   1    -0.522692578587E+02   -0.24176E-01   -0.81861E-03  3448   0.524E-01    0.700E-02
RMM:   2    -0.522692419910E+02    0.15868E-04   -0.30927E-04  3917   0.135E-01    0.341E-02
RMM:   3    -0.522692282328E+02    0.13758E-04   -0.67039E-05  3871   0.795E-02    0.671E-03
RMM:   4    -0.522692276076E+02    0.62523E-06   -0.63380E-06  2241   0.551E-02
   4 F= 0.22738282E+01 E0= 0.22738282E+01  d E =-.226204E-03
       N       E                     dE             d eps       ncg     rms          rms(c)
DAV:   1    -0.522700069509E+02   -0.77872E-03   -0.52333E-04  3992   0.196E-01    0.176E-02
RMM:   2    -0.522700078484E+02   -0.89754E-06   -0.27359E-05  3881   0.349E-02    0.107E-02
RMM:   3    -0.522700065028E+02    0.13456E-05   -0.89556E-07  2162   0.147E-02    0.159E-03
RMM:   4    -0.522700063006E+02    0.20220E-06   -0.29329E-07  2013   0.143E-02
   5 F= 0.22737883E+01 E0= 0.22737883E+01  d E =-.398860E-04
       N       E                     dE             d eps       ncg     rms          rms(c)
DAV:   1    -0.522683534821E+02    0.16530E-02   -0.49980E-04  3348   0.215E-01    0.106E-02
RMM:   2    -0.522683569853E+02   -0.35032E-05   -0.44917E-05  3775   0.483E-02    0.586E-03
RMM:   3    -0.522683565184E+02    0.46687E-06   -0.12019E-06  2189   0.250E-02
   6 F= 0.22737573E+01 E0= 0.22737573E+01  d E =-.310392E-04
       N       E                     dE             d eps       ncg     rms          rms(c)
DAV:   1    -0.522640049436E+02    0.43520E-02   -0.51504E-03  3216   0.760E-01    0.310E-02
RMM:   2    -0.522640461537E+02   -0.41210E-04   -0.49449E-04  3930   0.156E-01    0.174E-02
RMM:   3    -0.522640431632E+02    0.29905E-05   -0.13199E-05  2698   0.746E-02    0.553E-03
RMM:   4    -0.522640438501E+02   -0.68693E-06   -0.20729E-05  2769   0.736E-02    0.131E-03
RMM:   5    -0.522640431614E+02    0.68879E-06   -0.31308E-06  2144   0.695E-02
   7 F= 0.22737003E+01 E0= 0.22737003E+01  d E =-.569767E-04
       N       E                     dE             d eps       ncg     rms          rms(c)
DAV:   1    -0.522671271675E+02   -0.30833E-02   -0.23533E-04  4068   0.114E-01    0.118E-02
RMM:   2    -0.522671278197E+02   -0.65213E-06   -0.98731E-06  3354   0.150E-02
   8 F= 0.22736792E+01 E0= 0.22736792E+01  d E =-.210685E-04
       N       E                     dE             d eps       ncg     rms          rms(c)
DAV:   1    -0.522729774377E+02   -0.58503E-02   -0.27893E-04  3420   0.129E-01    0.136E-02
RMM:   2    -0.522729779526E+02   -0.51492E-06   -0.18337E-05  3620   0.324E-02    0.704E-03
RMM:   3    -0.522729774466E+02    0.50605E-06   -0.16711E-06  2207   0.183E-02
   9 F= 0.22736684E+01 E0= 0.22736684E+01  d E =-.108852E-04
       N       E                     dE             d eps       ncg     rms          rms(c)
DAV:   1    -0.522733697923E+02   -0.39184E-03   -0.11396E-04  3620   0.876E-02    0.425E-03
RMM:   2    -0.522733700524E+02   -0.26014E-06   -0.52541E-06  2446   0.239E-02
  10 F= 0.22736620E+01 E0= 0.22736620E+01  d E =-.636867E-05
       N       E                     dE             d eps       ncg     rms          rms(c)
DAV:   1    -0.522704605289E+02    0.29093E-02   -0.22846E-04  3404   0.143E-01    0.861E-03
RMM:   2    -0.522704611176E+02   -0.58865E-06   -0.10339E-05  3571   0.231E-02    0.460E-03
RMM:   3    -0.522704609581E+02    0.15947E-06   -0.14944E-06  1897   0.117E-02
  11 F= 0.22736535E+01 E0= 0.22736535E+01  d E =-.847352E-05
       N       E                     dE             d eps       ncg     rms          rms(c)
DAV:   1    -0.522683985859E+02    0.20625E-02   -0.26259E-04  3200   0.912E-02    0.765E-03
RMM:   2    -0.522683988304E+02   -0.24448E-06   -0.64172E-06  2972   0.183E-02
  12 F= 0.22736454E+01 E0= 0.22736454E+01  d E =-.816298E-05
       N       E                     dE             d eps       ncg     rms          rms(c)
DAV:   1    -0.522678945934E+02    0.50399E-03   -0.39198E-05  3660   0.431E-02    0.414E-03
RMM:   2    -0.522678945204E+02    0.72954E-07    0.12228E-07  1647   0.916E-03
  13 F= 0.22736425E+01 E0= 0.22736425E+01  d E =-.288889E-05
       N       E                     dE             d eps       ncg     rms          rms(c)
DAV:   1    -0.522696415552E+02   -0.17470E-02   -0.21037E-04  3144   0.118E-01    0.640E-03
RMM:   2    -0.522696422330E+02   -0.67776E-06   -0.94305E-06  2907   0.267E-02
  14 F= 0.22736368E+01 E0= 0.22736368E+01  d E =-.570928E-05
       N       E                     dE             d eps       ncg     rms          rms(c)
DAV:   1    -0.522706500962E+02   -0.10085E-02   -0.17166E-05  4172   0.509E-02    0.289E-03
RMM:   2    -0.522706500894E+02    0.67885E-08   -0.45783E-07  1624   0.449E-03
  15 F= 0.22736351E+01 E0= 0.22736351E+01  d E =-.166668E-05
       N       E                     dE             d eps       ncg     rms          rms(c)
DAV:   1    -0.522729394468E+02   -0.22894E-02   -0.76636E-04  3056   0.151E-01    0.111E-02
RMM:   2    -0.522729407362E+02   -0.12893E-05   -0.24845E-05  3678   0.262E-02    0.605E-03
RMM:   3    -0.522729402813E+02    0.45482E-06   -0.17140E-07  1935   0.791E-03
  16 F= 0.22736275E+01 E0= 0.22736275E+01  d E =-.761873E-05
       N       E                     dE             d eps       ncg     rms          rms(c)
DAV:   1    -0.522739797736E+02   -0.10390E-02   -0.20797E-04  3440   0.797E-02    0.540E-03
RMM:   2    -0.522739799175E+02   -0.14385E-06   -0.41336E-06  2842   0.156E-02
  17 F= 0.22736253E+01 E0= 0.22736253E+01  d E =-.218775E-05
