 vasp.5.4.4.18Apr17-6-g9f103f2a35 (build Mar 23 2021 02:00:50) complex          
  
 executed on             LinuxIFC date 2022.08.11  08:22:05
 running on   24 total cores
 distrk:  each k-point on   24 cores,    1 groups
 distr:  one band on NCORES_PER_BAND=   6 cores,    4 groups


--------------------------------------------------------------------------------------------------------


 INCAR:
 POTCAR:    PAW_PBE Be_sv 06Sep2000               
 POTCAR:    PAW_PBE Ba_sv 06Sep2000               
 POTCAR:    PAW_PBE H 15Jun2001                   
 POTCAR:    PAW_PBE Be_sv 06Sep2000               
   VRHFIN =Be: s2p0                                                             
   LEXCH  = PE                                                                  
   EATOM  =   398.1457 eV,   29.2629 Ry                                         
                                                                                
   TITEL  = PAW_PBE Be_sv 06Sep2000                                             
   LULTRA =        F    use ultrasoft PP ?                                      
   IUNSCR =        0    unscreen: 0-lin 1-nonlin 2-no                           
   RPACOR =    0.000    partial core radius                                     
   POMASS =    9.013; ZVAL   =    4.000    mass and valenz                      
   RCORE  =    1.800    outmost cutoff radius                                   
   RWIGS  =    1.880; RWIGS  =    0.995    wigner-seitz radius (au A)           
   ENMAX  =  308.768; ENMIN  =  231.576 eV                                      
   ICORE  =        2    local potential                                         
   LCOR   =        T    correct aug charges                                     
   LPAW   =        T    paw PP                                                  
   EAUG   =  780.944                                                            
   RMAX   =    1.838    core radius for proj-oper                               
   RAUG   =    1.300    factor for augmentation sphere                          
   RDEP   =    1.879    radius for radial grids                                 
   RDEPT  =    1.200    core radius for aug-charge                              
                                                                                
   Atomic configuration                                                         
    5 entries                                                                   
     n  l   j            E        occ.                                          
     1  0  0.50      -106.2287   2.0000                                         
     1  0  0.50      -107.5894   0.0000                                         
     2  0  0.50        -5.6162   1.9900                                         
     2  1  0.50        -2.0244   0.0100                                         
     3  2  1.50        -1.3606   0.0000                                         
   Description                                                                  
     l       E           TYP  RCUT    TYP  RCUT                                 
     0   -106.2286628     23  1.500                                             
     0   -107.5894297     23  1.500                                             
     0     -5.6161740     23  1.500                                             
     1     -2.0243506     23  1.800                                             
     1     10.7523704     23  1.800                                             
     2     -1.3605826     15  1.800                                             
  local pseudopotential read in
  kinetic energy density of atom read in
  atomic valenz-charges read in
  non local Contribution for L=           0  read in
    real space projection operators read in
  non local Contribution for L=           0  read in
    real space projection operators read in
  non local Contribution for L=           0  read in
    real space projection operators read in
  non local Contribution for L=           1  read in
    real space projection operators read in
  non local Contribution for L=           1  read in
    real space projection operators read in
    PAW grid and wavefunctions read in
 
   number of l-projection  operators is LMAX  =           5
   number of lm-projection operators is LMMAX =           9
 
 POTCAR:    PAW_PBE Ba_sv 06Sep2000               
   VRHFIN =Ba: 5s5p6s                                                           
   LEXCH  = PE                                                                  
   EATOM  =   700.8560 eV,   51.5115 Ry                                         
                                                                                
   TITEL  = PAW_PBE Ba_sv 06Sep2000                                             
   LULTRA =        F    use ultrasoft PP ?                                      
   IUNSCR =        1    unscreen: 0-lin 1-nonlin 2-no                           
   RPACOR =    2.400    partial core radius                                     
   POMASS =  137.327; ZVAL   =   10.000    mass and valenz                      
   RCORE  =    2.800    outmost cutoff radius                                   
   RWIGS  =    3.740; RWIGS  =    1.979    wigner-seitz radius (au A)           
   ENMAX  =  187.181; ENMIN  =  140.386 eV                                      
   RCLOC  =    2.516    cutoff for local pot                                    
   LCOR   =        T    correct aug charges                                     
   LPAW   =        T    paw PP                                                  
   EAUG   =  351.165                                                            
   DEXC   =    0.000                                                            
   RMAX   =    2.865    core radius for proj-oper                               
   RAUG   =    1.300    factor for augmentation sphere                          
   RDEP   =    2.976    radius for radial grids                                 
   RDEPT  =    2.289    core radius for aug-charge                              
                                                                                
   Atomic configuration                                                         
   13 entries                                                                   
     n  l   j            E        occ.                                          
     1  0  0.50    -37249.5946   2.0000                                         
     2  0  0.50     -5887.1925   2.0000                                         
     2  1  1.50     -5278.3977   6.0000                                         
     3  0  0.50     -1242.7293   2.0000                                         
     3  1  1.50     -1047.6609   6.0000                                         
     3  2  2.50      -764.6158  10.0000                                         
     4  0  0.50      -243.8228   2.0000                                         
     4  1  1.50      -180.9218   6.0000                                         
     4  2  2.50       -89.6477  10.0000                                         
     5  0  0.50       -33.6549   2.0000                                         
     6  0  0.50        -3.2247   1.9900                                         
     5  1  1.50       -18.7193   6.0000                                         
     5  2  2.50        -2.0115   0.0100                                         
   Description                                                                  
     l       E           TYP  RCUT    TYP  RCUT                                 
     0    -33.6549039     23  2.800                                             
     0     -3.2246942     23  2.800                                             
     1    -18.7193050     23  2.700                                             
     1     27.2116520     23  2.700                                             
     2     -2.0115002     23  2.700                                             
     2      0.3057420     23  2.700                                             
  local pseudopotential read in
  partial core-charges read in
  partial kinetic energy density read in
  atomic valenz-charges read in
  non local Contribution for L=           0  read in
    real space projection operators read in
  non local Contribution for L=           0  read in
    real space projection operators read in
  non local Contribution for L=           1  read in
    real space projection operators read in
  non local Contribution for L=           1  read in
    real space projection operators read in
  non local Contribution for L=           2  read in
    real space projection operators read in
  non local Contribution for L=           2  read in
    real space projection operators read in
    PAW grid and wavefunctions read in
 
   number of l-projection  operators is LMAX  =           6
   number of lm-projection operators is LMMAX =          18
 
 POTCAR:    PAW_PBE H 15Jun2001                   
   VRHFIN =H: ultrasoft test                                                    
   LEXCH  = PE                                                                  
   EATOM  =    12.4884 eV,    0.9179 Ry                                         
                                                                                
   TITEL  = PAW_PBE H 15Jun2001                                                 
   LULTRA =        F    use ultrasoft PP ?                                      
   IUNSCR =        0    unscreen: 0-lin 1-nonlin 2-no                           
   RPACOR =    0.000    partial core radius                                     
   POMASS =    1.000; ZVAL   =    1.000    mass and valenz                      
   RCORE  =    1.100    outmost cutoff radius                                   
   RWIGS  =    0.700; RWIGS  =    0.370    wigner-seitz radius (au A)           
   ENMAX  =  250.000; ENMIN  =  200.000 eV                                      
   RCLOC  =    0.701    cutoff for local pot                                    
   LCOR   =        T    correct aug charges                                     
   LPAW   =        T    paw PP                                                  
   EAUG   =  400.000                                                            
   RMAX   =    1.123    core radius for proj-oper                               
   RAUG   =    1.200    factor for augmentation sphere                          
   RDEP   =    1.112    radius for radial grids                                 
   RDEPT  =    0.926    core radius for aug-charge                              
                                                                                
   Atomic configuration                                                         
    2 entries                                                                   
     n  l   j            E        occ.                                          
     1  0  0.50        -6.4927   1.0000                                         
     2  1  0.50        -3.4015   0.0000                                         
   Description                                                                  
     l       E           TYP  RCUT    TYP  RCUT                                 
     0     -6.4927494     23  1.100                                             
     0      6.8029130     23  1.100                                             
     1     -4.0817478     23  1.100                                             
  local pseudopotential read in
  atomic valenz-charges read in
  non local Contribution for L=           0  read in
    real space projection operators read in
  non local Contribution for L=           0  read in
    real space projection operators read in
  non local Contribution for L=           1  read in
    real space projection operators read in
    PAW grid and wavefunctions read in
 
   number of l-projection  operators is LMAX  =           3
   number of lm-projection operators is LMMAX =           5
 
 Optimization of the real space projectors (new method)

 maximal supplied QI-value         = 20.98
 optimisation between [QCUT,QGAM] = [ 12.38, 24.96] = [ 42.89,174.48] Ry 
 Optimized for a Real-space Cutoff    1.39 Angstroem

   l    n(q)    QCUT    max X(q) W(low)/X(q) W(high)/X(q)  e(spline) 
   0     10    12.376    59.662    0.15E-03    0.49E-04    0.16E-05
   0     10    12.376    72.827    0.15E-03    0.49E-04    0.16E-05
   0     10    12.376    15.192    0.16E-03    0.47E-04    0.17E-05
   1     10    12.376    35.807    0.55E-05    0.18E-04    0.18E-06
   1     10    12.376    16.477    0.47E-05    0.16E-04    0.17E-06
 Optimization of the real space projectors (new method)

 maximal supplied QI-value         = 13.42
 optimisation between [QCUT,QGAM] = [ 12.48, 25.09] = [ 43.60,176.28] Ry 
 Optimized for a Real-space Cutoff    1.56 Angstroem

   l    n(q)    QCUT    max X(q) W(low)/X(q) W(high)/X(q)  e(spline) 
   0     12    12.478    13.244    0.30E-04    0.22E-04    0.29E-06
   0     12    12.478    14.240    0.46E-04    0.37E-04    0.41E-06
   1     11    12.478     4.828    0.23E-04    0.85E-05    0.32E-06
   1     11    12.478     3.934    0.89E-04    0.38E-05    0.96E-06
   2     11    12.478    87.714    0.11E-03    0.31E-03    0.12E-05
   2     11    12.478    59.874    0.10E-03    0.30E-03    0.11E-05
 Optimization of the real space projectors (new method)

 maximal supplied QI-value         = 34.20
 optimisation between [QCUT,QGAM] = [ 12.31, 24.97] = [ 42.46,174.58] Ry 
 Optimized for a Real-space Cutoff    1.13 Angstroem

   l    n(q)    QCUT    max X(q) W(low)/X(q) W(high)/X(q)  e(spline) 
   0      8    12.313    19.460    0.10E-03    0.25E-03    0.27E-06
   0      8    12.313    12.209    0.92E-04    0.23E-03    0.26E-06
   1      8    12.313     4.655    0.24E-03    0.28E-03    0.15E-06
  PAW_PBE Be_sv 06Sep2000               :
 energy of atom  1       EATOM= -398.1457
 kinetic energy error for atom=    0.0015 (will be added to EATOM!!)
  PAW_PBE Ba_sv 06Sep2000               :
 energy of atom  2       EATOM= -700.8560
 kinetic energy error for atom=    0.0003 (will be added to EATOM!!)
  PAW_PBE H 15Jun2001                   :
 energy of atom  3       EATOM=  -12.4884
 kinetic energy error for atom=    0.0004 (will be added to EATOM!!)
 
 
 POSCAR: 3:C2/c(15) PRIMITIVE                    
  positions in direct lattice
  velocities in cartesian coordinates
 exchange correlation table for  LEXCH =        8
   RHO(1)=    0.500       N(1)  =     2000
   RHO(2)=  100.500       N(2)  =     4000
 


--------------------------------------------------------------------------------------------------------


 ion  position               nearest neighbor table
   1  0.795  0.205  0.750-  11 1.29  17 1.29  16 1.30   5 1.30   4 2.73   4 2.80   4 2.80   3 2.86
                             3 2.86   4 2.88
   2  0.205  0.795  0.250-  18 1.29   6 1.29  12 1.30  15 1.30   3 2.73   3 2.80   3 2.80   4 2.86
                             4 2.86   3 2.88
   3  0.717  0.283  0.250-   8 2.15  14 2.15  14 2.16   8 2.16  18 2.25   6 2.25  10 2.26  19 2.26
                             7 2.27  13 2.27  15 2.28  12 2.28   9 2.30  20 2.30  19 2.31  10 2.31
   4  0.283  0.717  0.750-  13 2.15   7 2.15  13 2.16   7 2.16  17 2.25  11 2.25  20 2.26   9 2.26
                            14 2.27   8 2.27  16 2.28   5 2.28  10 2.30  19 2.30   9 2.31  20 2.31
   5  0.826  0.492  0.889-   1 1.30   4 2.28   3 2.37   4 2.41
   6  0.179  0.037  0.114-   2 1.29   3 2.25   3 2.35   4 2.36
   7  0.763  0.580  0.623-   9 0.78   4 2.15   4 2.16   3 2.27
   8  0.237  0.420  0.377-  10 0.78   3 2.15   3 2.16   4 2.27
   9  0.756  0.735  0.549-   7 0.78   4 2.26   3 2.30   4 2.31
  10  0.244  0.265  0.451-   8 0.78   3 2.26   4 2.30   3 2.31
  11  0.821  0.963  0.886-   1 1.29   4 2.25   4 2.35   3 2.36
  12  0.174  0.508  0.111-   2 1.30   3 2.28   4 2.37   3 2.41
  13  0.420  0.237  0.877-  20 0.78   4 2.15   4 2.16   3 2.27
  14  0.580  0.763  0.123-  19 0.78   3 2.15   3 2.16   4 2.27
  15  0.492  0.826  0.389-   2 1.30   3 2.28   4 2.37   3 2.41
  16  0.508  0.174  0.611-   1 1.30   4 2.28   3 2.37   4 2.41
  17  0.037  0.179  0.614-   1 1.29   4 2.25   4 2.35   3 2.36
  18  0.963  0.821  0.386-   2 1.29   3 2.25   3 2.35   4 2.36
  19  0.735  0.756  0.049-  14 0.78   3 2.26   4 2.30   3 2.31
  20  0.265  0.244  0.951-  13 0.78   4 2.26   3 2.30   4 2.31
 
  Warning from LATTYP: Got some problem with cell dimensions!
  Tried to take original basis but could not verify dimensions!
  LATTYP: Found a base centered monoclinic cell.
 ALAT       =     5.5983399438
 B/A-ratio  =     1.0025105093
 C/A-ratio  =     2.0829879660
 COS(beta)  =    -0.6206801650
  
  Lattice vectors:
  
 A1 = (  -2.7599021739,   2.8061973140,   0.4672178532)
 A2 = (  -2.7599021739,  -2.8061973140,   0.4672178532)
 A3 = (  11.0335862843,   0.0000000000,   3.7742949139)


Analysis of symmetry for initial positions (statically):
=====================================================================
 Subroutine PRICEL returns:
 Original cell was already a primitive cell.
 

 Routine SETGRP: Setting up the symmetry group for a 
 base centered monoclinic supercell.


 Subroutine GETGRP returns: Found  4 space group operations
 (whereof  2 operations were pure point group operations)
 out of a pool of  4 trial point group operations.


The static configuration has the point symmetry S_2 .
 The point group associated with its full space group is C_2h.


Analysis of symmetry for dynamics (positions and initial velocities):
=====================================================================
 Subroutine PRICEL returns:
 Original cell was already a primitive cell.
 

 Routine SETGRP: Setting up the symmetry group for a 
 base centered monoclinic supercell.


 Subroutine GETGRP returns: Found  4 space group operations
 (whereof  2 operations were pure point group operations)
 out of a pool of  4 trial point group operations.


The dynamic configuration has the point symmetry S_2 .
 The point group associated with its full space group is C_2h.


 Subroutine INISYM returns: Found  4 space group operations
 (whereof  2 operations are pure point group operations),
 and found     1 'primitive' translations

 
 
 KPOINTS: pymatgen with grid density = 3985 / numb

Automatic generation of k-mesh.
Space group operators:
 irot       det(A)        alpha          n_x          n_y          n_z        tau_x        tau_y        tau_z
    1     1.000000     0.000001     1.000000     0.000000     0.000000     0.000000     0.000000     0.000000
    2    -1.000000     0.000001     1.000000     0.000000     0.000000     0.000000     0.000000     0.000000
    3     1.000000   179.999999     0.000000     1.000000     0.000000    -1.000000    -1.000000    -0.500000
    4    -1.000000   179.999999     0.000000     1.000000     0.000000    -1.000000    -1.000000    -0.500000
 
 Subroutine IBZKPT returns following result:
 ===========================================
 
 Found     42 irreducible k-points:
 
 Following reciprocal coordinates:
            Coordinates               Weight
  0.083333  0.083333  0.125000      2.000000
  0.250000  0.083333  0.125000      4.000000
  0.416667  0.083333  0.125000      4.000000
 -0.416667  0.083333  0.125000      4.000000
 -0.250000  0.083333  0.125000      4.000000
 -0.083333  0.083333  0.125000      4.000000
  0.250000  0.250000  0.125000      2.000000
  0.416667  0.250000  0.125000      4.000000
 -0.416667  0.250000  0.125000      4.000000
 -0.250000  0.250000  0.125000      4.000000
 -0.083333  0.250000  0.125000      4.000000
  0.416667  0.416667  0.125000      2.000000
 -0.416667  0.416667  0.125000      4.000000
 -0.250000  0.416667  0.125000      4.000000
 -0.083333  0.416667  0.125000      4.000000
 -0.416667 -0.416667  0.125000      2.000000
 -0.250000 -0.416667  0.125000      4.000000
 -0.083333 -0.416667  0.125000      4.000000
 -0.250000 -0.250000  0.125000      2.000000
 -0.083333 -0.250000  0.125000      4.000000
 -0.083333 -0.083333  0.125000      2.000000
  0.083333  0.083333  0.375000      2.000000
  0.250000  0.083333  0.375000      4.000000
  0.416667  0.083333  0.375000      4.000000
 -0.416667  0.083333  0.375000      4.000000
 -0.250000  0.083333  0.375000      4.000000
 -0.083333  0.083333  0.375000      4.000000
  0.250000  0.250000  0.375000      2.000000
  0.416667  0.250000  0.375000      4.000000
 -0.416667  0.250000  0.375000      4.000000
 -0.250000  0.250000  0.375000      4.000000
 -0.083333  0.250000  0.375000      4.000000
  0.416667  0.416667  0.375000      2.000000
 -0.416667  0.416667  0.375000      4.000000
 -0.250000  0.416667  0.375000      4.000000
 -0.083333  0.416667  0.375000      4.000000
 -0.416667 -0.416667  0.375000      2.000000
 -0.250000 -0.416667  0.375000      4.000000
 -0.083333 -0.416667  0.375000      4.000000
 -0.250000 -0.250000  0.375000      2.000000
 -0.083333 -0.250000  0.375000      4.000000
 -0.083333 -0.083333  0.375000      2.000000
 
 Following cartesian coordinates:
            Coordinates               Weight
 -0.033950  0.000000 -0.022187      2.000000
 -0.064150 -0.029696 -0.022219      4.000000
 -0.094350 -0.059392 -0.022251      4.000000
  0.056649  0.089089 -0.022090      4.000000
  0.026449  0.059392 -0.022122      4.000000
 -0.003751  0.029696 -0.022155      4.000000
 -0.094350  0.000000 -0.022251      2.000000
 -0.124550 -0.029696 -0.022284      4.000000
  0.026449  0.118785 -0.022122      4.000000
 -0.003751  0.089089 -0.022155      4.000000
 -0.033950  0.059392 -0.022187      4.000000
 -0.154749  0.000000 -0.022316      2.000000
 -0.003751  0.148481 -0.022155      4.000000
 -0.033950  0.118785 -0.022187      4.000000
 -0.064150  0.089089 -0.022219      4.000000
  0.147248  0.000000 -0.021994      2.000000
  0.117049 -0.029696 -0.022026      4.000000
  0.086849 -0.059392 -0.022058      4.000000
  0.086849  0.000000 -0.022058      2.000000
  0.056649 -0.029696 -0.022090      4.000000
  0.026449  0.000000 -0.022122      2.000000
 -0.041451  0.000000 -0.066496      2.000000
 -0.071651 -0.029696 -0.066529      4.000000
 -0.101851 -0.059392 -0.066561      4.000000
  0.049148  0.089089 -0.066400      4.000000
  0.018948  0.059392 -0.066432      4.000000
 -0.011252  0.029696 -0.066464      4.000000
 -0.101851  0.000000 -0.066561      2.000000
 -0.132051 -0.029696 -0.066593      4.000000
  0.018948  0.118785 -0.066432      4.000000
 -0.011252  0.089089 -0.066464      4.000000
 -0.041451  0.059392 -0.066496      4.000000
 -0.162250  0.000000 -0.066625      2.000000
 -0.011252  0.148481 -0.066464      4.000000
 -0.041451  0.118785 -0.066496      4.000000
 -0.071651  0.089089 -0.066529      4.000000
  0.139747  0.000000 -0.066303      2.000000
  0.109547 -0.029696 -0.066335      4.000000
  0.079348 -0.059392 -0.066367      4.000000
  0.079348  0.000000 -0.066367      2.000000
  0.049148 -0.029696 -0.066400      4.000000
  0.018948  0.000000 -0.066432      2.000000
 


--------------------------------------------------------------------------------------------------------




 Dimension of arrays:
   k-points           NKPTS =     42   k-points in BZ     NKDIM =     42   number of bands    NBANDS=     36
   number of dos      NEDOS =   6001   number of ions     NIONS =     20
   non local maximal  LDIM  =      6   non local SUM 2l+1 LMDIM =     18
   total plane-waves  NPLWV =  49152
   max r-space proj   IRMAX =   8999   max aug-charges    IRDMAX=  35401
   dimension x,y,z NGX =    32 NGY =   32 NGZ =   48
   dimension x,y,z NGXF=    64 NGYF=   64 NGZF=   96
   support grid    NGXF=    64 NGYF=   64 NGZF=   96
   ions per type =               2   2  16
   NGX,Y,Z   is equivalent  to a cutoff of  13.42, 13.42, 14.14 a.u.
   NGXF,Y,Z  is equivalent  to a cutoff of  26.84, 26.84, 28.28 a.u.

 SYSTEM =  LOO                                     
 POSCAR =  3:C2/c(15) PRIMITIVE                    

 Startparameter for this run:
   NWRITE =      2    write-flag & timer
   PREC   = accura    normal or accurate (medium, high low for compatibility)
   ISTART =      0    job   : 0-new  1-cont  2-samecut
   ICHARG =      2    charge: 1-file 2-atom 10-const
   ISPIN  =      1    spin polarized calculation?
   LNONCOLLINEAR =      F non collinear calculations
   LSORBIT =      F    spin-orbit coupling
   INIWAV =      1    electr: 0-lowe 1-rand  2-diag
   LASPH  =      F    aspherical Exc in radial PAW
   METAGGA=      F    non-selfconsistent MetaGGA calc.

 Electronic Relaxation 1
   ENCUT  =  600.0 eV  44.10 Ry    6.64 a.u.   7.92  7.92 11.27*2*pi/ulx,y,z
   ENINI  =  600.0     initial cutoff
   ENAUG  =  780.9 eV  augmentation charge cutoff
   NELM   =    130;   NELMIN=  2; NELMDL=  0     # of ELM steps 
   EDIFF  = 0.1E-05   stopping-criterion for ELM
   LREAL  =      T    real-space projection
   NLSPLINE    = F    spline interpolate recip. space projectors
   LCOMPAT=      F    compatible to vasp.4.4
   GGA_COMPAT  = T    GGA compatible to vasp.4.4-vasp.4.6
   LMAXPAW     = -100 max onsite density
   LMAXMIX     =    2 max onsite mixed and CHGCAR
   VOSKOWN=      0    Vosko Wilk Nusair interpolation
   ROPT   =   -0.00025  -0.00025  -0.00025
 Ionic relaxation
   EDIFFG = -.1E-02   stopping-criterion for IOM
   NSW    =      0    number of steps for IOM
   NBLOCK =      1;   KBLOCK =      1    inner block; outer block 
   IBRION =     -1    ionic relax: 0-MD 1-quasi-New 2-CG
   NFREE  =      0    steps in history (QN), initial steepest desc. (CG)
   ISIF   =      1    stress and relaxation
   IWAVPR =     10    prediction:  0-non 1-charg 2-wave 3-comb
   ISYM   =      2    0-nonsym 1-usesym 2-fastsym
   LCORR  =      T    Harris-Foulkes like correction to forces

   POTIM  = 0.1000    time-step for ionic-motion
   TEIN   =    0.0    initial temperature
   TEBEG  =    0.0;   TEEND  =   0.0 temperature during run
   SMASS  =  -3.00    Nose mass-parameter (am)
   estimated Nose-frequenzy (Omega)   =  0.10E-29 period in steps =****** mass=  -0.359E-27a.u.
   SCALEE = 1.0000    scale energy and forces
   NPACO  =    256;   APACO  = 16.0  distance and # of slots for P.C.
   PSTRESS= 1000.0 pullay stress

  Mass of Ions in am
   POMASS =   9.01137.33  1.00
  Ionic Valenz
   ZVAL   =   4.00 10.00  1.00
  Atomic Wigner-Seitz radii
   RWIGS  =  -1.00 -1.00 -1.00
  virtual crystal weights 
   VCA    =   1.00  1.00  1.00
   NELECT =      44.0000    total number of electrons
   NUPDOWN=      -1.0000    fix difference up-down

 DOS related values:
   EMIN   = -20.00;   EMAX   = 20.00  energy-range for DOS
   EFERMI =   0.00
   ISMEAR =     0;   SIGMA  =   0.05  broadening in eV -4-tet -1-fermi 0-gaus

 Electronic relaxation 2 (details)
   IALGO  =     68    algorithm
   LDIAG  =      T    sub-space diagonalisation (order eigenvalues)
   LSUBROT=      F    optimize rotation matrix (better conditioning)
   TURBO    =      0    0=normal 1=particle mesh
   IRESTART =      0    0=no restart 2=restart with 2 vectors
   NREBOOT  =      0    no. of reboots
   NMIN     =      0    reboot dimension
   EREF     =   0.00    reference energy to select bands
   IMIX   =      4    mixing-type and parameters
     AMIX     =   0.40;   BMIX     =  1.00
     AMIX_MAG =   1.60;   BMIX_MAG =  1.00
     AMIN     =   0.10
     WC   =   100.;   INIMIX=   1;  MIXPRE=   1;  MAXMIX= -45

 Intra band minimization:
   WEIMIN = 0.0000     energy-eigenvalue tresh-hold
   EBREAK =  0.69E-08  absolut break condition
   DEPER  =   0.30     relativ break condition  

   TIME   =   0.40     timestep for ELM

  volume/ion in A,a.u.               =       4.37        29.49
  Fermi-wavevector in a.u.,A,eV,Ry     =   1.302358  2.461099 23.077327  1.696136
  Thomas-Fermi vector in A             =   2.433431
 
 Write flags
   LWAVE        =      T    write WAVECAR
   LDOWNSAMPLE  =      F    k-point downsampling of WAVECAR
   LCHARG       =      T    write CHGCAR
   LVTOT        =      F    write LOCPOT, total local potential
   LVHAR        =      F    write LOCPOT, Hartree potential only
   LELF         =      T    write electronic localiz. function (ELF)
   LORBIT       =     11    0 simple, 1 ext, 2 COOP (PROOUT), +10 PAW based schemes


 Dipole corrections
   LMONO  =      F    monopole corrections only (constant potential shift)
   LDIPOL =      F    correct potential (dipole corrections)
   IDIPOL =      0    1-x, 2-y, 3-z, 4-all directions 
   EPSILON=  1.0000000 bulk dielectric constant

 Exchange correlation treatment:
   GGA     =    --    GGA type
   LEXCH   =     8    internal setting for exchange type
   VOSKOWN=      0    Vosko Wilk Nusair interpolation
   LHFCALC =     F    Hartree Fock is set to
   LHFONE  =     F    Hartree Fock one center treatment
   AEXX    =    0.0000 exact exchange contribution

 Linear response parameters
   LEPSILON=     F    determine dielectric tensor
   LRPA    =     F    only Hartree local field effects (RPA)
   LNABLA  =     F    use nabla operator in PAW spheres
   LVEL    =     F    velocity operator in full k-point grid
   LINTERFAST=   F  fast interpolation
   KINTER  =     0    interpolate to denser k-point grid
   CSHIFT  =0.1000    complex shift for real part using Kramers Kronig
   OMEGAMAX=  -1.0    maximum frequency
   DEG_THRESHOLD= 0.2000000E-02 threshold for treating states as degnerate
   RTIME   =   -0.100 relaxation time in fs
  (WPLASMAI=    0.000 imaginary part of plasma frequency in eV, 0.658/RTIME)
   DFIELD  = 0.0000000 0.0000000 0.0000000 field for delta impulse in time
 
 Orbital magnetization related:
   ORBITALMAG=     F  switch on orbital magnetization
   LCHIMAG   =     F  perturbation theory with respect to B field
   DQ        =  0.001000  dq finite difference perturbation B field
   LLRAUG    =     F  two centre corrections for induced B field



--------------------------------------------------------------------------------------------------------


 Static calculation
 charge density and potential will be updated during run
 non-spin polarized calculation
 RMM-DIIS sequential band-by-band and
  variant of blocked Davidson during initial phase
 perform sub-space diagonalisation
    before iterative eigenvector-optimisation
 modified Broyden-mixing scheme, WC =      100.0
 initial mixing is a Kerker type mixing with AMIX =  0.4000 and BMIX =      1.0000
 Hartree-type preconditioning will be used
 using additional bands           14
 real space projection scheme for non local part
 use partial core corrections
 calculate Harris-corrections to forces 
   (improved forces if not selfconsistent)
 use gradient corrections 
 use of overlap-Matrix (Vanderbilt PP)
 Gauss-broadening in eV      SIGMA  =   0.05


--------------------------------------------------------------------------------------------------------


  energy-cutoff  :      600.00
  volume of cell :       87.39
      direct lattice vectors                 reciprocal lattice vectors
    -2.759902174 -2.806197314  0.467217853    -0.181198578 -0.178177065 -0.000193376
    -2.759902174  2.806197314  0.467217853    -0.181198578  0.178177065 -0.000193376
     0.006022411  0.000000000 -5.643166327    -0.030004152  0.000000000 -0.177237501

  length of vectors
     3.963596334  3.963596334  5.643169540     0.254126009  0.254126009  0.179759230


 
 k-points in units of 2pi/SCALE and weight: pymatgen with grid density = 3985 / numb
  -0.03395028  0.00000000 -0.02218692       0.014
  -0.06415004 -0.02969618 -0.02221915       0.028
  -0.09434981 -0.05939235 -0.02225138       0.028
   0.05664901  0.08908853 -0.02209023       0.028
   0.02644924  0.05939235 -0.02212246       0.028
  -0.00375052  0.02969618 -0.02215469       0.028
  -0.09434981  0.00000000 -0.02225138       0.014
  -0.12454957 -0.02969618 -0.02228360       0.028
   0.02644924  0.11878471 -0.02212246       0.028
  -0.00375052  0.08908853 -0.02215469       0.028
  -0.03395028  0.05939235 -0.02218692       0.028
  -0.15474933  0.00000000 -0.02231583       0.014
  -0.00375052  0.14848089 -0.02215469       0.028
  -0.03395028  0.11878471 -0.02218692       0.028
  -0.06415004  0.08908853 -0.02221915       0.028
   0.14724830  0.00000000 -0.02199354       0.014
   0.11704853 -0.02969618 -0.02202577       0.028
   0.08684877 -0.05939235 -0.02205800       0.028
   0.08684877  0.00000000 -0.02205800       0.014
   0.05664901 -0.02969618 -0.02209023       0.028
   0.02644924  0.00000000 -0.02212246       0.014
  -0.04145132  0.00000000 -0.06649629       0.014
  -0.07165108 -0.02969618 -0.06652852       0.028
  -0.10185085 -0.05939235 -0.06656075       0.028
   0.04914797  0.08908853 -0.06639960       0.028
   0.01894821  0.05939235 -0.06643183       0.028
  -0.01125156  0.02969618 -0.06646406       0.028
  -0.10185085  0.00000000 -0.06656075       0.014
  -0.13205061 -0.02969618 -0.06659298       0.028
   0.01894821  0.11878471 -0.06643183       0.028
  -0.01125156  0.08908853 -0.06646406       0.028
  -0.04145132  0.05939235 -0.06649629       0.028
  -0.16225037  0.00000000 -0.06662521       0.014
  -0.01125156  0.14848089 -0.06646406       0.028
  -0.04145132  0.11878471 -0.06649629       0.028
  -0.07165108  0.08908853 -0.06652852       0.028
   0.13974726  0.00000000 -0.06630292       0.014
   0.10954749 -0.02969618 -0.06633515       0.028
   0.07934773 -0.05939235 -0.06636737       0.028
   0.07934773  0.00000000 -0.06636737       0.014
   0.04914797 -0.02969618 -0.06639960       0.028
   0.01894821  0.00000000 -0.06643183       0.014
 
 k-points in reciprocal lattice and weights: pymatgen with grid density = 3985 / numb
   0.08333333  0.08333333  0.12500000       0.014
   0.25000000  0.08333333  0.12500000       0.028
   0.41666667  0.08333333  0.12500000       0.028
  -0.41666667  0.08333333  0.12500000       0.028
  -0.25000000  0.08333333  0.12500000       0.028
  -0.08333333  0.08333333  0.12500000       0.028
   0.25000000  0.25000000  0.12500000       0.014
   0.41666667  0.25000000  0.12500000       0.028
  -0.41666667  0.25000000  0.12500000       0.028
  -0.25000000  0.25000000  0.12500000       0.028
  -0.08333333  0.25000000  0.12500000       0.028
   0.41666667  0.41666667  0.12500000       0.014
  -0.41666667  0.41666667  0.12500000       0.028
  -0.25000000  0.41666667  0.12500000       0.028
  -0.08333333  0.41666667  0.12500000       0.028
  -0.41666667 -0.41666667  0.12500000       0.014
  -0.25000000 -0.41666667  0.12500000       0.028
  -0.08333333 -0.41666667  0.12500000       0.028
  -0.25000000 -0.25000000  0.12500000       0.014
  -0.08333333 -0.25000000  0.12500000       0.028
  -0.08333333 -0.08333333  0.12500000       0.014
   0.08333333  0.08333333  0.37500000       0.014
   0.25000000  0.08333333  0.37500000       0.028
   0.41666667  0.08333333  0.37500000       0.028
  -0.41666667  0.08333333  0.37500000       0.028
  -0.25000000  0.08333333  0.37500000       0.028
  -0.08333333  0.08333333  0.37500000       0.028
   0.25000000  0.25000000  0.37500000       0.014
   0.41666667  0.25000000  0.37500000       0.028
  -0.41666667  0.25000000  0.37500000       0.028
  -0.25000000  0.25000000  0.37500000       0.028
  -0.08333333  0.25000000  0.37500000       0.028
   0.41666667  0.41666667  0.37500000       0.014
  -0.41666667  0.41666667  0.37500000       0.028
  -0.25000000  0.41666667  0.37500000       0.028
  -0.08333333  0.41666667  0.37500000       0.028
  -0.41666667 -0.41666667  0.37500000       0.014
  -0.25000000 -0.41666667  0.37500000       0.028
  -0.08333333 -0.41666667  0.37500000       0.028
  -0.25000000 -0.25000000  0.37500000       0.014
  -0.08333333 -0.25000000  0.37500000       0.028
  -0.08333333 -0.08333333  0.37500000       0.014
 
 position of ions in fractional coordinates (direct lattice) 
   0.79536971  0.20463029  0.75000000
   0.20463029  0.79536971  0.25000000
   0.71737211  0.28262789  0.25000000
   0.28262789  0.71737211  0.75000000
   0.82577132  0.49166451  0.88916865
   0.17859085  0.03733043  0.11396502
   0.76289286  0.58025098  0.62301004
   0.23710714  0.41974902  0.37698996
   0.75636156  0.73519578  0.54855631
   0.24363844  0.26480422  0.45144369
   0.82140915  0.96266957  0.88603498
   0.17422868  0.50833549  0.11083135
   0.41974902  0.23710714  0.87698996
   0.58025098  0.76289286  0.12301004
   0.49166451  0.82577132  0.38916865
   0.50833549  0.17422868  0.61083135
   0.03733043  0.17859085  0.61396502
   0.96266957  0.82140915  0.38603498
   0.73519578  0.75636156  0.04855631
   0.26480422  0.24363844  0.95144369
 
 position of ions in cartesian coordinates  (Angst):
  -2.75538537 -1.65773139 -3.76515689
  -2.75839657  1.65773139 -0.94357373
  -2.75839657 -1.21997805 -0.94357373
  -2.75538537  1.21997805 -3.76515689
  -3.63063905 -0.93756963 -4.40219706
  -0.59523525 -0.39640461 -0.54224130
  -3.70319358 -0.51252918 -2.88820847
  -1.81058836  0.51252918 -1.82052215
  -4.11324871 -0.05939535 -2.39871231
  -1.40053322  0.05939535 -2.31001831
  -4.91854669  0.39640461 -4.16648933
  -1.88314288  0.93756963 -0.30653356
  -1.80757715 -0.51252918 -4.64210531
  -3.70620479  0.51252918 -0.06662531
  -3.63365026  0.93756963 -1.58061389
  -1.88013168 -0.93756963 -3.12811673
  -0.59222405  0.39640461 -3.36382446
  -4.92155789 -0.39640461 -1.34490616
  -4.11625992  0.05939535  0.42287086
  -1.39752202 -0.05939535 -5.13160148
 


--------------------------------------------------------------------------------------------------------


 k-point  1 :   0.0833 0.0833 0.1250  plane waves:    2900
 k-point  2 :   0.2500 0.0833 0.1250  plane waves:    2913
 k-point  3 :   0.4167 0.0833 0.1250  plane waves:    2929
 k-point  4 :  -0.4167 0.0833 0.1250  plane waves:    2924
 k-point  5 :  -0.2500 0.0833 0.1250  plane waves:    2915
 k-point  6 :  -0.0833 0.0833 0.1250  plane waves:    2900
 k-point  7 :   0.2500 0.2500 0.1250  plane waves:    2926
 k-point  8 :   0.4167 0.2500 0.1250  plane waves:    2932
 k-point  9 :  -0.4167 0.2500 0.1250  plane waves:    2922
 k-point 10 :  -0.2500 0.2500 0.1250  plane waves:    2921
 k-point 11 :  -0.0833 0.2500 0.1250  plane waves:    2913
 k-point 12 :   0.4167 0.4167 0.1250  plane waves:    2931
 k-point 13 :  -0.4167 0.4167 0.1250  plane waves:    2923
 k-point 14 :  -0.2500 0.4167 0.1250  plane waves:    2931
 k-point 15 :  -0.0833 0.4167 0.1250  plane waves:    2916
 k-point 16 :  -0.4167-0.4167 0.1250  plane waves:    2907
 k-point 17 :  -0.2500-0.4167 0.1250  plane waves:    2914
 k-point 18 :  -0.0833-0.4167 0.1250  plane waves:    2917
 k-point 19 :  -0.2500-0.2500 0.1250  plane waves:    2908
 k-point 20 :  -0.0833-0.2500 0.1250  plane waves:    2907
 k-point 21 :  -0.0833-0.0833 0.1250  plane waves:    2906
 k-point 22 :   0.0833 0.0833 0.3750  plane waves:    2900
 k-point 23 :   0.2500 0.0833 0.3750  plane waves:    2920
 k-point 24 :   0.4167 0.0833 0.3750  plane waves:    2925
 k-point 25 :  -0.4167 0.0833 0.3750  plane waves:    2914
 k-point 26 :  -0.2500 0.0833 0.3750  plane waves:    2912
 k-point 27 :  -0.0833 0.0833 0.3750  plane waves:    2902
 k-point 28 :   0.2500 0.2500 0.3750  plane waves:    2931
 k-point 29 :   0.4167 0.2500 0.3750  plane waves:    2928
 k-point 30 :  -0.4167 0.2500 0.3750  plane waves:    2918
 k-point 31 :  -0.2500 0.2500 0.3750  plane waves:    2919
 k-point 32 :  -0.0833 0.2500 0.3750  plane waves:    2913
 k-point 33 :   0.4167 0.4167 0.3750  plane waves:    2936
 k-point 34 :  -0.4167 0.4167 0.3750  plane waves:    2924
 k-point 35 :  -0.2500 0.4167 0.3750  plane waves:    2909
 k-point 36 :  -0.0833 0.4167 0.3750  plane waves:    2912
 k-point 37 :  -0.4167-0.4167 0.3750  plane waves:    2928
 k-point 38 :  -0.2500-0.4167 0.3750  plane waves:    2919
 k-point 39 :  -0.0833-0.4167 0.3750  plane waves:    2905
 k-point 40 :  -0.2500-0.2500 0.3750  plane waves:    2923
 k-point 41 :  -0.0833-0.2500 0.3750  plane waves:    2914
 k-point 42 :  -0.0833-0.0833 0.3750  plane waves:    2896

 maximum and minimum number of plane-waves per node :       500      471

 maximum number of plane-waves:      2936
 maximum index in each direction: 
   IXMAX=    8   IYMAX=    8   IZMAX=   11
   IXMIN=   -8   IYMIN=   -8   IZMIN=  -11


 real space projection operators:
  total allocation   :       5354.62 KBytes
  max/ min on nodes  :       1019.72        818.95


 parallel 3D FFT for wavefunctions:
    minimum data exchange during FFTs selected (reduces bandwidth)
 parallel 3D FFT for charge:
    minimum data exchange during FFTs selected (reduces bandwidth)


 total amount of memory used by VASP MPI-rank0    40021. kBytes
=======================================================================

   base      :      30000. kBytes
   nonlr-proj:       4307. kBytes
   fftplans  :        890. kBytes
   grid      :       1569. kBytes
   one-center:         62. kBytes
   wavefun   :       3193. kBytes
 
     INWAV:  cpu time    0.0000: real time    0.0000
 Broyden mixing: mesh for mixing (old mesh)
   NGX = 15   NGY = 15   NGZ = 23
  (NGX  = 64   NGY  = 64   NGZ  = 96)
  gives a total of   5175 points

 initial charge density was supplied:
 charge density of overlapping atoms calculated
 number of electron      44.0000000 magnetization 
 keeping initial charge density in first step


--------------------------------------------------------------------------------------------------------


 Maximum index for non-local projection operator         1678
 Maximum index for augmentation-charges         1495 (set IRDMAX)


--------------------------------------------------------------------------------------------------------


 First call to EWALD:  gamma=   0.399
 Maximum number of real-space cells 3x 3x 2
 Maximum number of reciprocal cells 3x 3x 3

    FEWALD:  cpu time    0.0013: real time    0.0013


--------------------------------------- Iteration      1(   1)  ---------------------------------------


    POTLOK:  cpu time    0.0095: real time    0.0103
    SETDIJ:  cpu time    0.0037: real time    0.0038
     EDDAV:  cpu time    0.9133: real time    0.9219
       DOS:  cpu time    0.0026: real time    0.0026
    --------------------------------------------
      LOOP:  cpu time    0.9291: real time    0.9386

 eigenvalue-minimisations  :  3964
 total energy-change (2. order) : 0.3330675E+03  (-0.2335172E+04)
 number of electron      44.0000000 magnetization 
 augmentation part       44.0000000 magnetization 

 Free energy of the ion-electron system (eV)
  ---------------------------------------------------
  alpha Z        PSCENC =       314.55829442
  Ewald energy   TEWEN  =     -2096.26899995
  -Hartree energ DENC   =      -176.90801280
  -exchange      EXHF   =         0.00000000
  -V(xc)+E(xc)   XCENC  =       140.10232643
  PAW double counting   =      1338.73365349    -1405.83620209
  entropy T*S    EENTRO =        -0.00204072
  eigenvalues    EBANDS =      -179.11912154
  atomic energy  EATOM  =      2397.80759001
  Solvation  Ediel_sol  =         0.00000000
  ---------------------------------------------------
  free energy    TOTEN  =       333.06748726 eV

  energy without entropy =      333.06952798  energy(sigma->0) =      333.06850762


--------------------------------------------------------------------------------------------------------




--------------------------------------- Iteration      1(   2)  ---------------------------------------


     EDDAV:  cpu time    0.8421: real time    0.8486
       DOS:  cpu time    0.0031: real time    0.0032
    --------------------------------------------
      LOOP:  cpu time    0.8453: real time    0.8518

 eigenvalue-minimisations  :  3560
 total energy-change (2. order) :-0.3551380E+03  (-0.3291959E+03)
 number of electron      44.0000000 magnetization 
 augmentation part       44.0000000 magnetization 

 Free energy of the ion-electron system (eV)
  ---------------------------------------------------
  alpha Z        PSCENC =       314.55829442
  Ewald energy   TEWEN  =     -2096.26899995
  -Hartree energ DENC   =      -176.90801280
  -exchange      EXHF   =         0.00000000
  -V(xc)+E(xc)   XCENC  =       140.10232643
  PAW double counting   =      1338.73365349    -1405.83620209
  entropy T*S    EENTRO =        -0.00000000
  eigenvalues    EBANDS =      -534.25916301
  atomic energy  EATOM  =      2397.80759001
  Solvation  Ediel_sol  =         0.00000000
  ---------------------------------------------------
  free energy    TOTEN  =       -22.07051349 eV

  energy without entropy =      -22.07051349  energy(sigma->0) =      -22.07051349


--------------------------------------------------------------------------------------------------------




--------------------------------------- Iteration      1(   3)  ---------------------------------------


     EDDAV:  cpu time    0.8550: real time    0.8614
       DOS:  cpu time    0.0034: real time    0.0035
    --------------------------------------------
      LOOP:  cpu time    0.8585: real time    0.8648

 eigenvalue-minimisations  :  3644
 total energy-change (2. order) :-0.3117205E+02  (-0.3055217E+02)
 number of electron      44.0000000 magnetization 
 augmentation part       44.0000000 magnetization 

 Free energy of the ion-electron system (eV)
  ---------------------------------------------------
  alpha Z        PSCENC =       314.55829442
  Ewald energy   TEWEN  =     -2096.26899995
  -Hartree energ DENC   =      -176.90801280
  -exchange      EXHF   =         0.00000000
  -V(xc)+E(xc)   XCENC  =       140.10232643
  PAW double counting   =      1338.73365349    -1405.83620209
  entropy T*S    EENTRO =        -0.00000000
  eigenvalues    EBANDS =      -565.43121650
  atomic energy  EATOM  =      2397.80759001
  Solvation  Ediel_sol  =         0.00000000
  ---------------------------------------------------
  free energy    TOTEN  =       -53.24256699 eV

  energy without entropy =      -53.24256699  energy(sigma->0) =      -53.24256699


--------------------------------------------------------------------------------------------------------




--------------------------------------- Iteration      1(   4)  ---------------------------------------


     EDDAV:  cpu time    1.0173: real time    1.0246
       DOS:  cpu time    0.0034: real time    0.0034
    --------------------------------------------
      LOOP:  cpu time    1.0207: real time    1.0280

 eigenvalue-minimisations  :  4464
 total energy-change (2. order) :-0.3177110E+01  (-0.3172412E+01)
 number of electron      44.0000000 magnetization 
 augmentation part       44.0000000 magnetization 

 Free energy of the ion-electron system (eV)
  ---------------------------------------------------
  alpha Z        PSCENC =       314.55829442
  Ewald energy   TEWEN  =     -2096.26899995
  -Hartree energ DENC   =      -176.90801280
  -exchange      EXHF   =         0.00000000
  -V(xc)+E(xc)   XCENC  =       140.10232643
  PAW double counting   =      1338.73365349    -1405.83620209
  entropy T*S    EENTRO =        -0.00000000
  eigenvalues    EBANDS =      -568.60832608
  atomic energy  EATOM  =      2397.80759001
  Solvation  Ediel_sol  =         0.00000000
  ---------------------------------------------------
  free energy    TOTEN  =       -56.41967657 eV

  energy without entropy =      -56.41967657  energy(sigma->0) =      -56.41967657


--------------------------------------------------------------------------------------------------------




--------------------------------------- Iteration      1(   5)  ---------------------------------------


     EDDAV:  cpu time    0.8958: real time    0.9027
       DOS:  cpu time    0.0034: real time    0.0034
    CHARGE:  cpu time    0.0239: real time    0.0241
    MIXING:  cpu time    0.0009: real time    0.0011
    --------------------------------------------
      LOOP:  cpu time    0.9241: real time    0.9312

 eigenvalue-minimisations  :  3856
 total energy-change (2. order) :-0.6649605E-01  (-0.6647151E-01)
 number of electron      44.0000031 magnetization 
 augmentation part        0.4810888 magnetization 

 Broyden mixing:
  rms(total) = 0.31036E+01    rms(broyden)= 0.31035E+01
  rms(prec ) = 0.35977E+01
  weight for this iteration     100.00

 Free energy of the ion-electron system (eV)
  ---------------------------------------------------
  alpha Z        PSCENC =       314.55829442
  Ewald energy   TEWEN  =     -2096.26899995
  -Hartree energ DENC   =      -176.90801280
  -exchange      EXHF   =         0.00000000
  -V(xc)+E(xc)   XCENC  =       140.10232643
  PAW double counting   =      1338.73365349    -1405.83620209
  entropy T*S    EENTRO =        -0.00000000
  eigenvalues    EBANDS =      -568.67482213
  atomic energy  EATOM  =      2397.80759001
  Solvation  Ediel_sol  =         0.00000000
  ---------------------------------------------------
  free energy    TOTEN  =       -56.48617262 eV

  energy without entropy =      -56.48617262  energy(sigma->0) =      -56.48617262


--------------------------------------------------------------------------------------------------------




--------------------------------------- Iteration      1(   6)  ---------------------------------------


    POTLOK:  cpu time    0.0078: real time    0.0080
    SETDIJ:  cpu time    0.0032: real time    0.0032
    EDDIAG:  cpu time    0.1349: real time    0.1358
  RMM-DIIS:  cpu time    0.6134: real time    0.6178
    ORTHCH:  cpu time    0.0147: real time    0.0148
       DOS:  cpu time    0.0032: real time    0.0032
    CHARGE:  cpu time    0.0232: real time    0.0233
    MIXING:  cpu time    0.0007: real time    0.0008
    --------------------------------------------
      LOOP:  cpu time    0.8011: real time    0.8068

 eigenvalue-minimisations  :  4415
 total energy-change (2. order) : 0.3023407E+01  (-0.3230325E+00)
 number of electron      44.0000031 magnetization 
 augmentation part        0.3876841 magnetization 

 Broyden mixing:
  rms(total) = 0.17756E+01    rms(broyden)= 0.17756E+01
  rms(prec ) = 0.20124E+01
  weight for this iteration     100.00

 eigenvalues of (default mixing * dielectric matrix)
  average eigenvalue GAMMA=   2.3301
  2.3301

 Free energy of the ion-electron system (eV)
  ---------------------------------------------------
  alpha Z        PSCENC =       314.55829442
  Ewald energy   TEWEN  =     -2096.26899995
  -Hartree energ DENC   =      -178.16357710
  -exchange      EXHF   =         0.00000000
  -V(xc)+E(xc)   XCENC  =       141.08486570
  PAW double counting   =      3153.48102388    -3222.68021516
  entropy T*S    EENTRO =        -0.00000000
  eigenvalues    EBANDS =      -563.28174733
  atomic energy  EATOM  =      2397.80759001
  Solvation  Ediel_sol  =         0.00000000
  ---------------------------------------------------
  free energy    TOTEN  =       -53.46276551 eV

  energy without entropy =      -53.46276551  energy(sigma->0) =      -53.46276551


--------------------------------------------------------------------------------------------------------




--------------------------------------- Iteration      1(   7)  ---------------------------------------


    POTLOK:  cpu time    0.0074: real time    0.0077
    SETDIJ:  cpu time    0.0029: real time    0.0030
    EDDIAG:  cpu time    0.1372: real time    0.1382
  RMM-DIIS:  cpu time    0.6390: real time    0.6434
    ORTHCH:  cpu time    0.0153: real time    0.0153
       DOS:  cpu time    0.0032: real time    0.0032
    CHARGE:  cpu time    0.0231: real time    0.0232
    MIXING:  cpu time    0.0006: real time    0.0006
    --------------------------------------------
      LOOP:  cpu time    0.8286: real time    0.8346

 eigenvalue-minimisations  :  4650
 total energy-change (2. order) : 0.1071736E+01  (-0.4175218E+00)
 number of electron      44.0000031 magnetization 
 augmentation part        0.2498353 magnetization 

 Broyden mixing:
  rms(total) = 0.10644E+00    rms(broyden)= 0.10642E+00
  rms(prec ) = 0.18528E+00
  weight for this iteration     100.00

 eigenvalues of (default mixing * dielectric matrix)
  average eigenvalue GAMMA=   2.2031
  2.2031  2.2031

 Free energy of the ion-electron system (eV)
  ---------------------------------------------------
  alpha Z        PSCENC =       314.55829442
  Ewald energy   TEWEN  =     -2096.26899995
  -Hartree energ DENC   =      -185.20100946
  -exchange      EXHF   =         0.00000000
  -V(xc)+E(xc)   XCENC  =       142.90417318
  PAW double counting   =      7135.33937193    -7206.68829205
  entropy T*S    EENTRO =        -0.00000000
  eigenvalues    EBANDS =      -554.84215782
  atomic energy  EATOM  =      2397.80759001
  Solvation  Ediel_sol  =         0.00000000
  ---------------------------------------------------
  free energy    TOTEN  =       -52.39102972 eV

  energy without entropy =      -52.39102972  energy(sigma->0) =      -52.39102972


--------------------------------------------------------------------------------------------------------




--------------------------------------- Iteration      1(   8)  ---------------------------------------


    POTLOK:  cpu time    0.0075: real time    0.0076
    SETDIJ:  cpu time    0.0031: real time    0.0031
    EDDIAG:  cpu time    0.1342: real time    0.1350
  RMM-DIIS:  cpu time    0.6920: real time    0.6974
    ORTHCH:  cpu time    0.0150: real time    0.0151
       DOS:  cpu time    0.0032: real time    0.0032
    CHARGE:  cpu time    0.0228: real time    0.0228
    MIXING:  cpu time    0.0006: real time    0.0006
    --------------------------------------------
      LOOP:  cpu time    0.8783: real time    0.8848

 eigenvalue-minimisations  :  4874
 total energy-change (2. order) : 0.1134849E+00  (-0.1716708E-01)
 number of electron      44.0000031 magnetization 
 augmentation part        0.2299793 magnetization 

 Broyden mixing:
  rms(total) = 0.55910E-01    rms(broyden)= 0.55909E-01
  rms(prec ) = 0.66471E-01
  weight for this iteration     100.00

 eigenvalues of (default mixing * dielectric matrix)
  average eigenvalue GAMMA=   1.8365
  1.0769  1.9533  2.4793

 Free energy of the ion-electron system (eV)
  ---------------------------------------------------
  alpha Z        PSCENC =       314.55829442
  Ewald energy   TEWEN  =     -2096.26899995
  -Hartree energ DENC   =      -186.52278497
  -exchange      EXHF   =         0.00000000
  -V(xc)+E(xc)   XCENC  =       142.96288715
  PAW double counting   =      7352.88292360    -7423.80084992
  entropy T*S    EENTRO =        -0.00000000
  eigenvalues    EBANDS =      -553.89660521
  atomic energy  EATOM  =      2397.80759001
  Solvation  Ediel_sol  =         0.00000000
  ---------------------------------------------------
  free energy    TOTEN  =       -52.27754486 eV

  energy without entropy =      -52.27754486  energy(sigma->0) =      -52.27754486


--------------------------------------------------------------------------------------------------------




--------------------------------------- Iteration      1(   9)  ---------------------------------------


    POTLOK:  cpu time    0.0074: real time    0.0076
    SETDIJ:  cpu time    0.0029: real time    0.0029
    EDDIAG:  cpu time    0.1351: real time    0.1358
  RMM-DIIS:  cpu time    0.7595: real time    0.7650
    ORTHCH:  cpu time    0.0148: real time    0.0148
       DOS:  cpu time    0.0032: real time    0.0032
    CHARGE:  cpu time    0.0230: real time    0.0231
    MIXING:  cpu time    0.0005: real time    0.0005
    --------------------------------------------
      LOOP:  cpu time    0.9463: real time    0.9529

 eigenvalue-minimisations  :  5549
 total energy-change (2. order) : 0.3540016E-02  (-0.1001113E-02)
 number of electron      44.0000031 magnetization 
 augmentation part        0.2174916 magnetization 

 Broyden mixing:
  rms(total) = 0.11583E-01    rms(broyden)= 0.11582E-01
  rms(prec ) = 0.16257E-01
  weight for this iteration     100.00

 eigenvalues of (default mixing * dielectric matrix)
  average eigenvalue GAMMA=   1.9054
  1.0997  2.6546  2.1908  1.6765

 Free energy of the ion-electron system (eV)
  ---------------------------------------------------
  alpha Z        PSCENC =       314.55829442
  Ewald energy   TEWEN  =     -2096.26899995
  -Hartree energ DENC   =      -186.96715794
  -exchange      EXHF   =         0.00000000
  -V(xc)+E(xc)   XCENC  =       143.02706170
  PAW double counting   =      7519.35676328    -7590.30801073
  entropy T*S    EENTRO =        -0.00000000
  eigenvalues    EBANDS =      -553.47954564
  atomic energy  EATOM  =      2397.80759001
  Solvation  Ediel_sol  =         0.00000000
  ---------------------------------------------------
  free energy    TOTEN  =       -52.27400484 eV

  energy without entropy =      -52.27400484  energy(sigma->0) =      -52.27400484


--------------------------------------------------------------------------------------------------------




--------------------------------------- Iteration      1(  10)  ---------------------------------------


    POTLOK:  cpu time    0.0074: real time    0.0076
    SETDIJ:  cpu time    0.0029: real time    0.0029
    EDDIAG:  cpu time    0.1365: real time    0.1373
  RMM-DIIS:  cpu time    0.7516: real time    0.7574
    ORTHCH:  cpu time    0.0155: real time    0.0155
       DOS:  cpu time    0.0032: real time    0.0032
    CHARGE:  cpu time    0.0229: real time    0.0230
    MIXING:  cpu time    0.0007: real time    0.0007
    --------------------------------------------
      LOOP:  cpu time    0.9406: real time    0.9476

 eigenvalue-minimisations  :  5526
 total energy-change (2. order) :-0.2653134E-04  (-0.2699347E-03)
 number of electron      44.0000031 magnetization 
 augmentation part        0.2140421 magnetization 

 Broyden mixing:
  rms(total) = 0.27914E-02    rms(broyden)= 0.27912E-02
  rms(prec ) = 0.36658E-02
  weight for this iteration     100.00

 eigenvalues of (default mixing * dielectric matrix)
  average eigenvalue GAMMA=   1.7725
  1.0490  2.3925  2.2478  1.7906  1.3827

 Free energy of the ion-electron system (eV)
  ---------------------------------------------------
  alpha Z        PSCENC =       314.55829442
  Ewald energy   TEWEN  =     -2096.26899995
  -Hartree energ DENC   =      -187.18530821
  -exchange      EXHF   =         0.00000000
  -V(xc)+E(xc)   XCENC  =       143.03103601
  PAW double counting   =      7558.07703287    -7628.97030420
  entropy T*S    EENTRO =        -0.00000000
  eigenvalues    EBANDS =      -553.32337234
  atomic energy  EATOM  =      2397.80759001
  Solvation  Ediel_sol  =         0.00000000
  ---------------------------------------------------
  free energy    TOTEN  =       -52.27403137 eV

  energy without entropy =      -52.27403137  energy(sigma->0) =      -52.27403137


--------------------------------------------------------------------------------------------------------




--------------------------------------- Iteration      1(  11)  ---------------------------------------


    POTLOK:  cpu time    0.0074: real time    0.0076
    SETDIJ:  cpu time    0.0031: real time    0.0031
    EDDIAG:  cpu time    0.1371: real time    0.1379
  RMM-DIIS:  cpu time    0.7824: real time    0.7884
    ORTHCH:  cpu time    0.0155: real time    0.0156
       DOS:  cpu time    0.0031: real time    0.0032
    CHARGE:  cpu time    0.0229: real time    0.0230
    MIXING:  cpu time    0.0006: real time    0.0006
    --------------------------------------------
      LOOP:  cpu time    0.9722: real time    0.9793

 eigenvalue-minimisations  :  5745
 total energy-change (2. order) :-0.1032001E-03  (-0.1308184E-03)
 number of electron      44.0000031 magnetization 
 augmentation part        0.2127302 magnetization 

 Broyden mixing:
  rms(total) = 0.21896E-02    rms(broyden)= 0.21896E-02
  rms(prec ) = 0.29062E-02
  weight for this iteration     100.00

 eigenvalues of (default mixing * dielectric matrix)
  average eigenvalue GAMMA=   1.7517
  2.6400  2.6400  1.7208  1.7208  0.9121  0.8766

 Free energy of the ion-electron system (eV)
  ---------------------------------------------------
  alpha Z        PSCENC =       314.55829442
  Ewald energy   TEWEN  =     -2096.26899995
  -Hartree energ DENC   =      -187.13927902
  -exchange      EXHF   =         0.00000000
  -V(xc)+E(xc)   XCENC  =       143.02509551
  PAW double counting   =      7549.94022702    -7620.82506948
  entropy T*S    EENTRO =        -0.00000000
  eigenvalues    EBANDS =      -553.37199309
  atomic energy  EATOM  =      2397.80759001
  Solvation  Ediel_sol  =         0.00000000
  ---------------------------------------------------
  free energy    TOTEN  =       -52.27413457 eV

  energy without entropy =      -52.27413457  energy(sigma->0) =      -52.27413457


--------------------------------------------------------------------------------------------------------




--------------------------------------- Iteration      1(  12)  ---------------------------------------


    POTLOK:  cpu time    0.0075: real time    0.0077
    SETDIJ:  cpu time    0.0029: real time    0.0029
    EDDIAG:  cpu time    0.1343: real time    0.1350
  RMM-DIIS:  cpu time    0.7418: real time    0.7474
    ORTHCH:  cpu time    0.0147: real time    0.0148
       DOS:  cpu time    0.0032: real time    0.0032
    CHARGE:  cpu time    0.0226: real time    0.0227
    MIXING:  cpu time    0.0006: real time    0.0006
    --------------------------------------------
      LOOP:  cpu time    0.9276: real time    0.9344

 eigenvalue-minimisations  :  5343
 total energy-change (2. order) :-0.4920520E-04  (-0.5466231E-04)
 number of electron      44.0000031 magnetization 
 augmentation part        0.2119085 magnetization 

 Broyden mixing:
  rms(total) = 0.12773E-02    rms(broyden)= 0.12773E-02
  rms(prec ) = 0.15360E-02
  weight for this iteration     100.00

 eigenvalues of (default mixing * dielectric matrix)
  average eigenvalue GAMMA=   1.8739
  3.5796  2.6095  2.1897  1.5830  1.2920  0.9935  0.8699

 Free energy of the ion-electron system (eV)
  ---------------------------------------------------
  alpha Z        PSCENC =       314.55829442
  Ewald energy   TEWEN  =     -2096.26899995
  -Hartree energ DENC   =      -187.15110290
  -exchange      EXHF   =         0.00000000
  -V(xc)+E(xc)   XCENC  =       143.02318975
  PAW double counting   =      7551.52860743    -7622.39861062
  entropy T*S    EENTRO =        -0.00000000
  eigenvalues    EBANDS =      -553.37315193
  atomic energy  EATOM  =      2397.80759001
  Solvation  Ediel_sol  =         0.00000000
  ---------------------------------------------------
  free energy    TOTEN  =       -52.27418378 eV

  energy without entropy =      -52.27418378  energy(sigma->0) =      -52.27418378


--------------------------------------------------------------------------------------------------------




--------------------------------------- Iteration      1(  13)  ---------------------------------------


    POTLOK:  cpu time    0.0075: real time    0.0078
    SETDIJ:  cpu time    0.0029: real time    0.0029
    EDDIAG:  cpu time    0.1343: real time    0.1350
  RMM-DIIS:  cpu time    0.6569: real time    0.6616
    ORTHCH:  cpu time    0.0146: real time    0.0147
       DOS:  cpu time    0.0032: real time    0.0032
    CHARGE:  cpu time    0.0223: real time    0.0224
    MIXING:  cpu time    0.0006: real time    0.0006
    --------------------------------------------
      LOOP:  cpu time    0.8422: real time    0.8481

 eigenvalue-minimisations  :  4848
 total energy-change (2. order) :-0.3003380E-04  (-0.3375237E-04)
 number of electron      44.0000031 magnetization 
 augmentation part        0.2113783 magnetization 

 Broyden mixing:
  rms(total) = 0.36949E-03    rms(broyden)= 0.36945E-03
  rms(prec ) = 0.65418E-03
  weight for this iteration     100.00

 eigenvalues of (default mixing * dielectric matrix)
  average eigenvalue GAMMA=   1.7924
  2.9835  2.5772  2.1594  2.1594  1.5540  1.1800  0.9255  0.8001

 Free energy of the ion-electron system (eV)
  ---------------------------------------------------
  alpha Z        PSCENC =       314.55829442
  Ewald energy   TEWEN  =     -2096.26899995
  -Hartree energ DENC   =      -187.15102609
  -exchange      EXHF   =         0.00000000
  -V(xc)+E(xc)   XCENC  =       143.02276205
  PAW double counting   =      7554.79661097    -7625.66105547
  entropy T*S    EENTRO =        -0.00000000
  eigenvalues    EBANDS =      -553.37838977
  atomic energy  EATOM  =      2397.80759001
  Solvation  Ediel_sol  =         0.00000000
  ---------------------------------------------------
  free energy    TOTEN  =       -52.27421381 eV

  energy without entropy =      -52.27421381  energy(sigma->0) =      -52.27421381


--------------------------------------------------------------------------------------------------------




--------------------------------------- Iteration      1(  14)  ---------------------------------------


    POTLOK:  cpu time    0.0070: real time    0.0073
    SETDIJ:  cpu time    0.0028: real time    0.0028
    EDDIAG:  cpu time    0.1344: real time    0.1354
  RMM-DIIS:  cpu time    0.6253: real time    0.6300
    ORTHCH:  cpu time    0.0161: real time    0.0162
       DOS:  cpu time    0.0031: real time    0.0032
    CHARGE:  cpu time    0.0231: real time    0.0231
    MIXING:  cpu time    0.0007: real time    0.0007
    --------------------------------------------
      LOOP:  cpu time    0.8125: real time    0.8188

 eigenvalue-minimisations  :  4345
 total energy-change (2. order) :-0.1660853E-04  (-0.1803503E-04)
 number of electron      44.0000031 magnetization 
 augmentation part        0.2110644 magnetization 

 Broyden mixing:
  rms(total) = 0.32162E-03    rms(broyden)= 0.32161E-03
  rms(prec ) = 0.42735E-03
  weight for this iteration     100.00

 eigenvalues of (default mixing * dielectric matrix)
  average eigenvalue GAMMA=   1.8680
  4.3334  2.5966  2.2806  2.2806  1.5877  1.1778  0.8846  0.8846  0.7858

 Free energy of the ion-electron system (eV)
  ---------------------------------------------------
  alpha Z        PSCENC =       314.55829442
  Ewald energy   TEWEN  =     -2096.26899995
  -Hartree energ DENC   =      -187.15795630
  -exchange      EXHF   =         0.00000000
  -V(xc)+E(xc)   XCENC  =       143.02312829
  PAW double counting   =      7555.37562804    -7626.23975252
  entropy T*S    EENTRO =        -0.00000000
  eigenvalues    EBANDS =      -553.37216242
  atomic energy  EATOM  =      2397.80759001
  Solvation  Ediel_sol  =         0.00000000
  ---------------------------------------------------
  free energy    TOTEN  =       -52.27423042 eV

  energy without entropy =      -52.27423042  energy(sigma->0) =      -52.27423042


--------------------------------------------------------------------------------------------------------




--------------------------------------- Iteration      1(  15)  ---------------------------------------


    POTLOK:  cpu time    0.0075: real time    0.0077
    SETDIJ:  cpu time    0.0031: real time    0.0031
    EDDIAG:  cpu time    0.1364: real time    0.1372
  RMM-DIIS:  cpu time    0.6061: real time    0.6105
    ORTHCH:  cpu time    0.0147: real time    0.0148
       DOS:  cpu time    0.0031: real time    0.0031
    CHARGE:  cpu time    0.0228: real time    0.0229
    MIXING:  cpu time    0.0007: real time    0.0007
    --------------------------------------------
      LOOP:  cpu time    0.7945: real time    0.8001

 eigenvalue-minimisations  :  4059
 total energy-change (2. order) :-0.8808727E-05  (-0.1053132E-04)
 number of electron      44.0000031 magnetization 
 augmentation part        0.2109121 magnetization 

 Broyden mixing:
  rms(total) = 0.10190E-03    rms(broyden)= 0.10189E-03
  rms(prec ) = 0.13678E-03
  weight for this iteration     100.00

 eigenvalues of (default mixing * dielectric matrix)
  average eigenvalue GAMMA=   1.8329
  4.0882  2.6452  2.4533  2.0710  1.7233  1.7233  1.0461  0.8986  0.8986  0.7815

 Free energy of the ion-electron system (eV)
  ---------------------------------------------------
  alpha Z        PSCENC =       314.55829442
  Ewald energy   TEWEN  =     -2096.26899995
  -Hartree energ DENC   =      -187.16022297
  -exchange      EXHF   =         0.00000000
  -V(xc)+E(xc)   XCENC  =       143.02266811
  PAW double counting   =      7555.45411487    -7626.31527255
  entropy T*S    EENTRO =        -0.00000000
  eigenvalues    EBANDS =      -553.37241118
  atomic energy  EATOM  =      2397.80759001
  Solvation  Ediel_sol  =         0.00000000
  ---------------------------------------------------
  free energy    TOTEN  =       -52.27423923 eV

  energy without entropy =      -52.27423923  energy(sigma->0) =      -52.27423923


--------------------------------------------------------------------------------------------------------




--------------------------------------- Iteration      1(  16)  ---------------------------------------


    POTLOK:  cpu time    0.0072: real time    0.0074
    SETDIJ:  cpu time    0.0030: real time    0.0030
    EDDIAG:  cpu time    0.1344: real time    0.1354
  RMM-DIIS:  cpu time    0.5046: real time    0.5080
    ORTHCH:  cpu time    0.0146: real time    0.0147
       DOS:  cpu time    0.0032: real time    0.0032
    CHARGE:  cpu time    0.0226: real time    0.0227
    MIXING:  cpu time    0.0007: real time    0.0007
    --------------------------------------------
      LOOP:  cpu time    0.6903: real time    0.6952

 eigenvalue-minimisations  :  3579
 total energy-change (2. order) :-0.4919933E-05  (-0.6399762E-05)
 number of electron      44.0000031 magnetization 
 augmentation part        0.2108422 magnetization 

 Broyden mixing:
  rms(total) = 0.90662E-04    rms(broyden)= 0.90659E-04
  rms(prec ) = 0.10740E-03
  weight for this iteration     100.00

 eigenvalues of (default mixing * dielectric matrix)
  average eigenvalue GAMMA=   1.6674
  4.0882  2.6467  2.4451  2.0633  1.7191  1.7191  1.0472  0.8973  0.8973  0.7808
  0.0367

 Free energy of the ion-electron system (eV)
  ---------------------------------------------------
  alpha Z        PSCENC =       314.55829442
  Ewald energy   TEWEN  =     -2096.26899995
  -Hartree energ DENC   =      -187.16175849
  -exchange      EXHF   =         0.00000000
  -V(xc)+E(xc)   XCENC  =       143.02279327
  PAW double counting   =      7555.59020684    -7626.45139853
  entropy T*S    EENTRO =        -0.00000000
  eigenvalues    EBANDS =      -553.37097173
  atomic energy  EATOM  =      2397.80759001
  Solvation  Ediel_sol  =         0.00000000
  ---------------------------------------------------
  free energy    TOTEN  =       -52.27424415 eV

  energy without entropy =      -52.27424415  energy(sigma->0) =      -52.27424415


--------------------------------------------------------------------------------------------------------




--------------------------------------- Iteration      1(  17)  ---------------------------------------


    POTLOK:  cpu time    0.0072: real time    0.0074
    SETDIJ:  cpu time    0.0029: real time    0.0029
    EDDIAG:  cpu time    0.1344: real time    0.1353
  RMM-DIIS:  cpu time    0.4940: real time    0.4975
    ORTHCH:  cpu time    0.0166: real time    0.0167
       DOS:  cpu time    0.0032: real time    0.0032
    CHARGE:  cpu time    0.0232: real time    0.0233
    MIXING:  cpu time    0.0007: real time    0.0007
    --------------------------------------------
      LOOP:  cpu time    0.6822: real time    0.6870

 eigenvalue-minimisations  :  3335
 total energy-change (2. order) :-0.1638373E-05  (-0.3286008E-05)
 number of electron      44.0000031 magnetization 
 augmentation part        0.2108221 magnetization 

 Broyden mixing:
  rms(total) = 0.96187E-04    rms(broyden)= 0.96187E-04
  rms(prec ) = 0.11896E-03
  weight for this iteration     100.00

 eigenvalues of (default mixing * dielectric matrix)
  average eigenvalue GAMMA=   1.5631
  4.0988  2.6475  2.4400  2.0647  1.7157  1.7157  1.0483  0.9228  0.8563  0.7902
  0.2971  0.1606

 Free energy of the ion-electron system (eV)
  ---------------------------------------------------
  alpha Z        PSCENC =       314.55829442
  Ewald energy   TEWEN  =     -2096.26899995
  -Hartree energ DENC   =      -187.16190165
  -exchange      EXHF   =         0.00000000
  -V(xc)+E(xc)   XCENC  =       143.02279710
  PAW double counting   =      7555.60865092    -7626.46979708
  entropy T*S    EENTRO =        -0.00000000
  eigenvalues    EBANDS =      -553.37087956
  atomic energy  EATOM  =      2397.80759001
  Solvation  Ediel_sol  =         0.00000000
  ---------------------------------------------------
  free energy    TOTEN  =       -52.27424579 eV

  energy without entropy =      -52.27424579  energy(sigma->0) =      -52.27424579


--------------------------------------------------------------------------------------------------------




--------------------------------------- Iteration      1(  18)  ---------------------------------------


    POTLOK:  cpu time    0.0075: real time    0.0077
    SETDIJ:  cpu time    0.0029: real time    0.0030
    EDDIAG:  cpu time    0.1378: real time    0.1388
  RMM-DIIS:  cpu time    0.4595: real time    0.4625
    ORTHCH:  cpu time    0.0146: real time    0.0147
       DOS:  cpu time    0.0031: real time    0.0031
    CHARGE:  cpu time    0.0221: real time    0.0222
    MIXING:  cpu time    0.0007: real time    0.0007
    --------------------------------------------
      LOOP:  cpu time    0.6482: real time    0.6526

 eigenvalue-minimisations  :  3180
 total energy-change (2. order) :-0.8055677E-06  (-0.2612986E-05)
 number of electron      44.0000031 magnetization 
 augmentation part        0.2108125 magnetization 

 Broyden mixing:
  rms(total) = 0.11168E-03    rms(broyden)= 0.11168E-03
  rms(prec ) = 0.12997E-03
  weight for this iteration     100.00

 eigenvalues of (default mixing * dielectric matrix)
  average eigenvalue GAMMA=   1.5156
  4.2606  2.6581  2.3440  2.1204  1.7445  1.7445  1.0430  0.9078  0.9078  0.7407
  0.4904  0.4904  0.2502

 Free energy of the ion-electron system (eV)
  ---------------------------------------------------
  alpha Z        PSCENC =       314.55829442
  Ewald energy   TEWEN  =     -2096.26899995
  -Hartree energ DENC   =      -187.16181229
  -exchange      EXHF   =         0.00000000
  -V(xc)+E(xc)   XCENC  =       143.02279559
  PAW double counting   =      7555.59818859    -7626.45935090
  entropy T*S    EENTRO =        -0.00000000
  eigenvalues    EBANDS =      -553.37095208
  atomic energy  EATOM  =      2397.80759001
  Solvation  Ediel_sol  =         0.00000000
  ---------------------------------------------------
  free energy    TOTEN  =       -52.27424659 eV

  energy without entropy =      -52.27424659  energy(sigma->0) =      -52.27424659


--------------------------------------------------------------------------------------------------------




--------------------------------------- Iteration      1(  19)  ---------------------------------------


    POTLOK:  cpu time    0.0070: real time    0.0072
    SETDIJ:  cpu time    0.0029: real time    0.0029
    EDDIAG:  cpu time    0.1344: real time    0.1355
  RMM-DIIS:  cpu time    0.4584: real time    0.4615
    ORTHCH:  cpu time    0.0146: real time    0.0147
       DOS:  cpu time    0.0031: real time    0.0032
    CHARGE:  cpu time    0.0227: real time    0.0228
    MIXING:  cpu time    0.0007: real time    0.0007
    --------------------------------------------
      LOOP:  cpu time    0.6440: real time    0.6484

 eigenvalue-minimisations  :  3099
 total energy-change (2. order) :-0.6693153E-06  (-0.2458243E-05)
 number of electron      44.0000031 magnetization 
 augmentation part        0.2108178 magnetization 

 Broyden mixing:
  rms(total) = 0.10170E-03    rms(broyden)= 0.10170E-03
  rms(prec ) = 0.11121E-03
  weight for this iteration     100.00

 eigenvalues of (default mixing * dielectric matrix)
  average eigenvalue GAMMA=   1.5036
  3.9128  2.6467  2.4013  1.9554  1.6891  1.6891  1.3092  1.3092  1.0603  0.9198
  0.8754  0.7671  0.2571  0.2571

 Free energy of the ion-electron system (eV)
  ---------------------------------------------------
  alpha Z        PSCENC =       314.55829442
  Ewald energy   TEWEN  =     -2096.26899995
  -Hartree energ DENC   =      -187.16241586
  -exchange      EXHF   =         0.00000000
  -V(xc)+E(xc)   XCENC  =       143.02277019
  PAW double counting   =      7555.63056309    -7626.49140371
  entropy T*S    EENTRO =        -0.00000000
  eigenvalues    EBANDS =      -553.37064545
  atomic energy  EATOM  =      2397.80759001
  Solvation  Ediel_sol  =         0.00000000
  ---------------------------------------------------
  free energy    TOTEN  =       -52.27424726 eV

  energy without entropy =      -52.27424726  energy(sigma->0) =      -52.27424726


--------------------------------------------------------------------------------------------------------




--------------------------------------- Iteration      1(  20)  ---------------------------------------


    POTLOK:  cpu time    0.0071: real time    0.0073
    SETDIJ:  cpu time    0.0028: real time    0.0029
    EDDIAG:  cpu time    0.1349: real time    0.1357
  RMM-DIIS:  cpu time    0.4476: real time    0.4510
    ORTHCH:  cpu time    0.0147: real time    0.0148
       DOS:  cpu time    0.0031: real time    0.0031
    CHARGE:  cpu time    0.0225: real time    0.0226
    MIXING:  cpu time    0.0007: real time    0.0007
    --------------------------------------------
      LOOP:  cpu time    0.6335: real time    0.6381

 eigenvalue-minimisations  :  3001
 total energy-change (2. order) :-0.3270243E-06  (-0.2223981E-05)
 number of electron      44.0000031 magnetization 
 augmentation part        0.2108169 magnetization 

 Broyden mixing:
  rms(total) = 0.14000E-03    rms(broyden)= 0.14000E-03
  rms(prec ) = 0.14727E-03
  weight for this iteration     100.00

 eigenvalues of (default mixing * dielectric matrix)
  average eigenvalue GAMMA=   1.4562
  3.8306  1.4849  2.6541  2.3836  1.9973  1.7111  1.7111  0.9366  0.9366  1.0509
  0.9087  0.9087  0.7540  0.2877  0.2877

 Free energy of the ion-electron system (eV)
  ---------------------------------------------------
  alpha Z        PSCENC =       314.55829442
  Ewald energy   TEWEN  =     -2096.26899995
  -Hartree energ DENC   =      -187.16268024
  -exchange      EXHF   =         0.00000000
  -V(xc)+E(xc)   XCENC  =       143.02282100
  PAW double counting   =      7555.63340157    -7626.49441272
  entropy T*S    EENTRO =        -0.00000000
  eigenvalues    EBANDS =      -553.37026168
  atomic energy  EATOM  =      2397.80759001
  Solvation  Ediel_sol  =         0.00000000
  ---------------------------------------------------
  free energy    TOTEN  =       -52.27424759 eV

  energy without entropy =      -52.27424759  energy(sigma->0) =      -52.27424759


--------------------------------------------------------------------------------------------------------




--------------------------------------- Iteration      1(  21)  ---------------------------------------


    POTLOK:  cpu time    0.0072: real time    0.0074
    SETDIJ:  cpu time    0.0029: real time    0.0029
    EDDIAG:  cpu time    0.1368: real time    0.1378
  RMM-DIIS:  cpu time    0.4423: real time    0.4453
    ORTHCH:  cpu time    0.0147: real time    0.0148
       DOS:  cpu time    0.0031: real time    0.0032
    CHARGE:  cpu time    0.0234: real time    0.0235
    MIXING:  cpu time    0.0009: real time    0.0009
    --------------------------------------------
      LOOP:  cpu time    0.6313: real time    0.6356

 eigenvalue-minimisations  :  2941
 total energy-change (2. order) :-0.1424742E-06  (-0.2088841E-05)
 number of electron      44.0000031 magnetization 
 augmentation part        0.2108098 magnetization 

 Broyden mixing:
  rms(total) = 0.17121E-03    rms(broyden)= 0.17121E-03
  rms(prec ) = 0.18692E-03
[...]
     31      12.8714      0.00000
     32      13.4585      0.00000
     33      13.9589      0.00000
     34      14.8320      0.00000
     35      14.9391      0.00000
     36      15.7621      0.00000

 k-point    38 :      -0.2500   -0.4167    0.3750
  band No.  band energies     occupation 
      1     -92.3206      2.00000
      2     -92.3205      2.00000
      3     -21.2452      2.00000
      4     -20.9989      2.00000
      5     -10.3612      2.00000
      6     -10.1394      2.00000
      7      -9.1287      2.00000
      8      -8.7325      2.00000
      9      -7.3323      2.00000
     10      -6.8362      2.00000
     11      -3.2025      2.00000
     12      -2.7519      2.00000
     13      -2.2826      2.00000
     14      -1.6681      2.00000
     15      -0.9567      2.00000
     16      -0.3554      2.00000
     17       0.0854      2.00000
     18       1.6404      2.00000
     19       2.2776      2.00000
     20       3.0238      2.00000
     21       3.4261      2.00000
     22       3.8261      2.00000
     23       7.3608      0.00000
     24       9.1036      0.00000
     25      10.0728      0.00000
     26      11.0518      0.00000
     27      11.2912      0.00000
     28      11.5571      0.00000
     29      11.9273      0.00000
     30      12.9095      0.00000
     31      13.5260      0.00000
     32      13.9854      0.00000
     33      15.3313      0.00000
     34      15.5528      0.00000
     35      16.0422      0.00000
     36      16.3733      0.00000

 k-point    39 :      -0.0833   -0.4167    0.3750
  band No.  band energies     occupation 
      1     -92.3206      2.00000
      2     -92.3206      2.00000
      3     -21.3448      2.00000
      4     -21.0451      2.00000
      5     -10.7005      2.00000
      6     -10.4167      2.00000
      7      -8.0102      2.00000
      8      -7.3506      2.00000
      9      -6.8253      2.00000
     10      -6.3906      2.00000
     11      -4.8746      2.00000
     12      -4.3727      2.00000
     13      -2.0805      2.00000
     14      -0.9624      2.00000
     15      -0.5131      2.00000
     16      -0.1735      2.00000
     17       0.3298      2.00000
     18       1.3786      2.00000
     19       1.7090      2.00000
     20       2.4280      2.00000
     21       3.0626      2.00000
     22       3.5070      2.00000
     23       7.1311      0.00000
     24       8.0441      0.00000
     25       9.8597      0.00000
     26      10.1525      0.00000
     27      10.8363      0.00000
     28      11.0483      0.00000
     29      11.8846      0.00000
     30      13.2559      0.00000
     31      13.8645      0.00000
     32      14.0292      0.00000
     33      14.7663      0.00000
     34      15.7216      0.00000
     35      16.1462      0.00000
     36      16.9966      0.00000

 k-point    40 :      -0.2500   -0.2500    0.3750
  band No.  band energies     occupation 
      1     -92.3206      2.00000
      2     -92.3206      2.00000
      3     -21.3781      2.00000
      4     -21.0157      2.00000
      5     -10.3228      2.00000
      6      -9.5915      2.00000
      7      -8.8975      2.00000
      8      -8.7196      2.00000
      9      -7.2219      2.00000
     10      -6.3047      2.00000
     11      -3.2986      2.00000
     12      -2.7330      2.00000
     13      -2.7063      2.00000
     14      -2.0781      2.00000
     15      -0.7497      2.00000
     16      -0.6290      2.00000
     17      -0.0470      2.00000
     18       1.9921      2.00000
     19       2.0522      2.00000
     20       2.6917      2.00000
     21       3.4479      2.00000
     22       3.5438      2.00000
     23       7.0337      0.00000
     24       8.1765      0.00000
     25       8.7743      0.00000
     26       9.8556      0.00000
     27      10.3859      0.00000
     28      12.1380      0.00000
     29      12.6157      0.00000
     30      13.3139      0.00000
     31      13.6299      0.00000
     32      14.6932      0.00000
     33      15.0719      0.00000
     34      15.1619      0.00000
     35      15.5054      0.00000
     36      15.9218      0.00000

 k-point    41 :      -0.0833   -0.2500    0.3750
  band No.  band energies     occupation 
      1     -92.3206      2.00000
      2     -92.3206      2.00000
      3     -21.4622      2.00000
      4     -21.0808      2.00000
      5     -10.4218      2.00000
      6      -9.6423      2.00000
      7      -8.0254      2.00000
      8      -7.5934      2.00000
      9      -6.9543      2.00000
     10      -6.1874      2.00000
     11      -4.5200      2.00000
     12      -4.3132      2.00000
     13      -2.4238      2.00000
     14      -1.6293      2.00000
     15      -1.0354      2.00000
     16      -0.0426      2.00000
     17       0.5507      2.00000
     18       1.5304      2.00000
     19       1.7647      2.00000
     20       2.6528      2.00000
     21       2.9422      2.00000
     22       3.3143      2.00000
     23       7.3008      0.00000
     24       7.5733      0.00000
     25       8.6167      0.00000
     26       9.4961      0.00000
     27      10.1587      0.00000
     28      12.3169      0.00000
     29      12.5608      0.00000
     30      12.6827      0.00000
     31      13.0242      0.00000
     32      13.6542      0.00000
     33      14.1390      0.00000
     34      15.1877      0.00000
     35      15.3842      0.00000
     36      16.9051      0.00000

 k-point    42 :      -0.0833   -0.0833    0.3750
  band No.  band energies     occupation 
      1     -92.3206      2.00000
      2     -92.3205      2.00000
      3     -21.5293      2.00000
      4     -21.1677      2.00000
      5     -10.1333      2.00000
      6      -8.8201      2.00000
      7      -7.5660      2.00000
      8      -7.3630      2.00000
      9      -7.0151      2.00000
     10      -6.5755      2.00000
     11      -4.7100      2.00000
     12      -4.0233      2.00000
     13      -3.9016      2.00000
     14      -2.1312      2.00000
     15      -0.9272      2.00000
     16       0.1751      2.00000
     17       1.2084      2.00000
     18       1.4886      2.00000
     19       1.5704      2.00000
     20       2.2908      2.00000
     21       3.3231      2.00000
     22       3.6422      2.00000
     23       7.5159      0.00000
     24       7.5322      0.00000
     25       8.9886      0.00000
     26       9.0787      0.00000
     27       9.1662      0.00000
     28      10.8326      0.00000
     29      11.5330      0.00000
     30      12.6790      0.00000
     31      12.7625      0.00000
     32      12.9878      0.00000
     33      13.3935      0.00000
     34      14.8056      0.00000
     35      14.8649      0.00000
     36      16.2871      0.00000


--------------------------------------------------------------------------------------------------------


 soft charge-density along one line, spin component           1
         0         1         2         3         4         5         6         7         8         9
 total charge-density along one line
 
 pseudopotential strength for first ion, spin component:           1
-97.534 -91.190   2.656  -0.002  -0.000  -0.000  -0.006  -0.000
-91.190 -85.386   2.644  -0.002  -0.000  -0.000  -0.006  -0.000
  2.656   2.644   2.779   0.001   0.000   0.000   0.002   0.000
 -0.002  -0.002   0.001  -0.692  -0.000  -0.000  -1.630  -0.000
 -0.000  -0.000   0.000  -0.000  -0.692   0.000  -0.000  -1.630
 -0.000  -0.000   0.000  -0.000   0.000  -0.692  -0.000   0.001
 -0.006  -0.006   0.002  -1.630  -0.000  -0.000  -3.578  -0.000
 -0.000  -0.000   0.000  -0.000  -1.630   0.001  -0.000  -3.578
 -0.000  -0.000   0.000  -0.000   0.001  -1.630  -0.000   0.002
 total augmentation occupancy for first ion, spin component:           1
  2.114  -0.104  -0.242  -0.028   0.000   0.000   0.008   0.000   0.000
 -0.104   0.095   0.273   0.026   0.000   0.000  -0.007   0.000   0.000
 -0.242   0.273   1.434  -0.019   0.000   0.000  -0.001   0.000   0.000
 -0.028   0.026  -0.019   3.449   0.000   0.000  -0.586   0.000   0.000
  0.000   0.000   0.000   0.000   3.494  -0.071   0.000  -0.588   0.015
  0.000   0.000   0.000   0.000  -0.071   3.471   0.000   0.015  -0.586
  0.008  -0.007  -0.001  -0.586   0.000   0.000   0.103   0.000   0.000
  0.000   0.000   0.000   0.000  -0.588   0.015   0.000   0.102  -0.004
  0.000   0.000   0.000   0.000   0.015  -0.586   0.000  -0.004   0.103


------------------------ aborting loop because EDIFF is reached ----------------------------------------


 


 total charge     
 
# of ion       s       p       d       tot
------------------------------------------
    1        2.461   1.011   0.000   3.472
    2        2.461   1.011   0.000   3.472
    3        2.047   5.698   0.892   8.637
    4        2.047   5.698   0.892   8.637
    5        0.644   0.019   0.000   0.664
    6        0.653   0.018   0.000   0.672
    7        0.663   0.053   0.000   0.715
    8        0.663   0.053   0.000   0.715
    9        0.620   0.059   0.000   0.679
   10        0.620   0.059   0.000   0.679
   11        0.653   0.018   0.000   0.672
   12        0.644   0.019   0.000   0.664
   13        0.659   0.053   0.000   0.712
   14        0.659   0.053   0.000   0.712
   15        0.644   0.019   0.000   0.663
   16        0.644   0.019   0.000   0.663
   17        0.653   0.019   0.000   0.672
   18        0.653   0.019   0.000   0.672
   19        0.619   0.058   0.000   0.678
   20        0.619   0.058   0.000   0.678
--------------------------------------------------
tot         19.328  14.012   1.785  35.125
 
    CHARGE:  cpu time    0.0224: real time    0.0225
    FORLOC:  cpu time    0.0017: real time    0.0018
    FORNL :  cpu time    0.2820: real time    0.2836
    STRESS:  cpu time    0.0987: real time    0.0995
    FORCOR:  cpu time    0.0066: real time    0.0068
    FORHAR:  cpu time    0.0030: real time    0.0031
    MIXING:  cpu time    0.0021: real time    0.0021
    OFIELD:  cpu time    0.0000: real time    0.0000
 only isotrope contributions calculated
  for stress because ISIF=1 (only pressure is correct)

  FORCE on cell =-STRESS in cart. coord.  units (eV):
  Direction    XX          YY          ZZ          XY          YZ          ZX
  --------------------------------------------------------------------------------------
  Alpha Z   314.55829   314.55829   314.55829
  Ewald    -688.95576  -686.51040  -720.80587     0.00000     0.00000   -25.29865
  Hartree    66.29651    66.80462    54.06066     0.00000    -0.00000    -7.10579
  E(xc)    -163.13646  -163.06560  -162.97580     0.00000    -0.00000    -0.31874
  Local     172.16365   170.69122   216.36766     0.00000    -0.00000    26.05103
  n-local  -145.34364  -145.34364  -145.34364     0.00000     0.00000     0.00000
  augment   -44.93996   -44.93996   -44.93996     0.00000     0.00000     0.00000
  Kinetic   543.80367   542.56254   543.49475    -0.29704     1.95820     5.26618
  Fock        0.00000     0.00000     0.00000     0.00000     0.00000     0.00000
  -------------------------------------------------------------------------------------
  Total      54.44631    54.75707    54.41609     0.00000     0.00000    -1.40597
  in kB     998.14295  1003.84007   997.58901     0.00000     0.00000   -25.77509
  external pressure =       -0.14 kB  Pullay stress =     1000.00 kB


 VOLUME and BASIS-vectors are now :
 -----------------------------------------------------------------------------
  energy-cutoff  :      600.00
  volume of cell :       87.39
      direct lattice vectors                 reciprocal lattice vectors
    -2.759902174 -2.806197314  0.467217853    -0.181198578 -0.178177065 -0.000193376
    -2.759902174  2.806197314  0.467217853    -0.181198578  0.178177065 -0.000193376
     0.006022411  0.000000000 -5.643166327    -0.030004152  0.000000000 -0.177237501

  length of vectors
     3.963596334  3.963596334  5.643169540     0.254126009  0.254126009  0.179759230


 FORCES acting on ions
    electron-ion (+dipol)            ewald-force                    non-local-force                 convergence-correction
 -----------------------------------------------------------------------------------------------
   -.166E-13 0.506E+01 -.207E-11   -.146E-11 -.592E+01 0.232E-11   -.140E-16 0.862E+00 0.000E+00   -.225E-13 -.982E-04 -.142E-13
   0.307E-12 -.506E+01 -.304E-12   -.112E-11 0.592E+01 0.250E-11   0.104E-16 -.862E+00 0.000E+00   0.610E-14 0.982E-04 -.212E-13
   -.834E-12 0.123E+01 0.295E-12   0.228E-11 -.221E+01 -.931E-12   -.390E-17 0.981E+00 0.867E-18   -.403E-13 -.427E-03 0.100E-13
   -.445E-12 -.123E+01 0.306E-12   0.230E-11 0.221E+01 -.959E-12   -.611E-17 -.981E+00 0.173E-17   0.251E-13 0.427E-03 0.175E-13
   0.110E+02 -.683E+01 0.955E+01   -.123E+02 0.768E+01 -.105E+02   0.128E+01 -.845E+00 0.994E+00   0.356E-04 -.811E-04 0.445E-04
   0.540E+01 -.957E+01 -.109E+02   -.610E+01 0.107E+02 0.121E+02   0.697E+00 -.112E+01 -.125E+01   0.706E-04 -.285E-04 -.611E-04
   -.506E+01 0.401E+01 0.423E+01   0.724E+01 -.635E+01 -.689E+01   -.218E+01 0.234E+01 0.266E+01   -.195E-04 -.399E-04 -.410E-04
   0.506E+01 -.401E+01 -.423E+01   -.724E+01 0.635E+01 0.689E+01   0.218E+01 -.234E+01 -.266E+01   0.195E-04 0.399E-04 0.410E-04
   0.792E+01 -.989E+01 -.891E+01   -.103E+02 0.126E+02 0.116E+02   0.237E+01 -.269E+01 -.267E+01   -.596E-04 0.627E-05 -.282E-04
   -.792E+01 0.989E+01 0.891E+01   0.103E+02 -.126E+02 -.116E+02   -.237E+01 0.269E+01 0.267E+01   0.596E-04 -.627E-05 0.282E-04
   -.540E+01 0.957E+01 0.109E+02   0.610E+01 -.107E+02 -.121E+02   -.697E+00 0.112E+01 0.125E+01   -.706E-04 0.285E-04 0.611E-04
   -.110E+02 0.683E+01 -.955E+01   0.123E+02 -.768E+01 0.105E+02   -.128E+01 0.845E+00 -.994E+00   -.356E-04 0.811E-04 -.445E-04
   0.506E+01 0.401E+01 -.423E+01   -.724E+01 -.635E+01 0.689E+01   0.218E+01 0.234E+01 -.266E+01   0.195E-04 -.399E-04 0.410E-04
   -.506E+01 -.401E+01 0.423E+01   0.724E+01 0.635E+01 -.689E+01   -.218E+01 -.234E+01 0.266E+01   -.195E-04 0.399E-04 -.410E-04
   0.110E+02 0.683E+01 0.955E+01   -.123E+02 -.768E+01 -.105E+02   0.128E+01 0.845E+00 0.994E+00   0.356E-04 0.811E-04 0.445E-04
   -.110E+02 -.683E+01 -.955E+01   0.123E+02 0.768E+01 0.105E+02   -.128E+01 -.845E+00 -.994E+00   -.356E-04 -.811E-04 -.445E-04
   0.540E+01 0.957E+01 -.109E+02   -.610E+01 -.107E+02 0.121E+02   0.697E+00 0.112E+01 -.125E+01   0.706E-04 0.285E-04 -.611E-04
   -.540E+01 -.957E+01 0.109E+02   0.610E+01 0.107E+02 -.121E+02   -.697E+00 -.112E+01 0.125E+01   -.706E-04 -.285E-04 0.611E-04
   0.792E+01 0.989E+01 -.891E+01   -.103E+02 -.126E+02 0.116E+02   0.237E+01 0.269E+01 -.267E+01   -.596E-04 -.627E-05 -.282E-04
   -.792E+01 -.989E+01 0.891E+01   0.103E+02 0.126E+02 -.116E+02   -.237E+01 -.269E+01 0.267E+01   0.596E-04 0.627E-05 0.282E-04
 -----------------------------------------------------------------------------------------------
   -.170E-11 0.796E-12 -.173E-11   -.888E-14 -.178E-14 0.231E-13   -.133E-14 0.444E-15 0.888E-15   -.234E-13 0.118E-13 -.101E-13
 
 
 POSITION                                       TOTAL-FORCE (eV/Angst)
 -----------------------------------------------------------------------------------
     -2.75539     -1.65773     -3.76516         0.000000      0.000044     -0.000000
     -2.75840      1.65773     -0.94357         0.000000     -0.000044     -0.000000
     -2.75840     -1.21998     -0.94357         0.000000     -0.001700     -0.000000
     -2.75539      1.21998     -3.76516        -0.000000      0.001700     -0.000000
     -3.63064     -0.93757     -4.40220         0.000016     -0.000100     -0.000251
     -0.59524     -0.39640     -0.54224        -0.000702     -0.000066     -0.000073
     -3.70319     -0.51253     -2.88821         0.000175      0.000462     -0.000273
     -1.81059      0.51253     -1.82052        -0.000175     -0.000462      0.000273
     -4.11325     -0.05940     -2.39871         0.000670      0.000258     -0.000368
     -1.40053      0.05940     -2.31002        -0.000670     -0.000258      0.000368
     -4.91855      0.39640     -4.16649         0.000702      0.000066      0.000073
     -1.88314      0.93757     -0.30653        -0.000016      0.000100      0.000251
     -1.80758     -0.51253     -4.64211        -0.000175      0.000462      0.000273
     -3.70620      0.51253     -0.06663         0.000175     -0.000462     -0.000273
     -3.63365      0.93757     -1.58061         0.000016      0.000100     -0.000251
     -1.88013     -0.93757     -3.12812        -0.000016     -0.000100      0.000251
     -0.59222      0.39640     -3.36382        -0.000702      0.000066     -0.000073
     -4.92156     -0.39640     -1.34491         0.000702     -0.000066      0.000073
     -4.11626      0.05940      0.42287         0.000670     -0.000258     -0.000368
     -1.39752     -0.05940     -5.13160        -0.000670      0.000258      0.000368
 -----------------------------------------------------------------------------------
    total drift:                               -0.000000      0.000000     -0.000000


--------------------------------------------------------------------------------------------------------



  FREE ENERGIE OF THE ION-ELECTRON SYSTEM (eV)
  ---------------------------------------------------
  free  energy   TOTEN  =       -52.27425088 eV

  energy  without entropy=      -52.27425088  energy(sigma->0) =      -52.27425088
  enthalpy is  TOTEN    =         2.27335431 eV   P V=       54.54760520



--------------------------------------------------------------------------------------------------------


    POTLOK:  cpu time    0.0099: real time    0.0100


--------------------------------------------------------------------------------------------------------


 writing wavefunctions
     LOOP+:  cpu time   40.1002: real time   40.5219
    4ORBIT:  cpu time    0.0000: real time    0.0000
 


 total charge     
 
# of ion       s       p       d       tot
------------------------------------------
    1        2.461   1.011   0.000   3.472
    2        2.461   1.011   0.000   3.472
    3        2.047   5.698   0.892   8.637
    4        2.047   5.698   0.892   8.637
    5        0.644   0.019   0.000   0.664
    6        0.653   0.018   0.000   0.672
    7        0.663   0.053   0.000   0.715
    8        0.663   0.053   0.000   0.715
    9        0.620   0.059   0.000   0.679
   10        0.620   0.059   0.000   0.679
   11        0.653   0.018   0.000   0.672
   12        0.644   0.019   0.000   0.664
   13        0.659   0.053   0.000   0.712
   14        0.659   0.053   0.000   0.712
   15        0.644   0.019   0.000   0.663
   16        0.644   0.019   0.000   0.663
   17        0.653   0.019   0.000   0.672
   18        0.653   0.019   0.000   0.672
   19        0.619   0.058   0.000   0.678
   20        0.619   0.058   0.000   0.678
--------------------------------------------------
tot         19.328  14.012   1.785  35.125
 

 total amount of memory used by VASP MPI-rank0    40021. kBytes
=======================================================================

   base      :      30000. kBytes
   nonlr-proj:       4307. kBytes
   fftplans  :        890. kBytes
   grid      :       1569. kBytes
   one-center:         62. kBytes
   wavefun   :       3193. kBytes
 
  
  
 General timing and accounting informations for this job:
 ========================================================
  
                  Total CPU time used (sec):       44.350
                            User time (sec):       42.912
                          System time (sec):        1.438
                         Elapsed time (sec):       62.170
  
                   Maximum memory used (kb):      321476.
                   Average memory used (kb):           0.
  
                          Minor page faults:       114931
                          Major page faults:            2
                 Voluntary context switches:         8423
