       N       E                     dE             d eps       ncg     rms          rms(c)
DAV:   1     0.335963964882E+03    0.33596E+03   -0.23291E+04  3904   0.317E+03
DAV:   2    -0.226828309651E+02   -0.35865E+03   -0.33212E+03  3540   0.664E+02
DAV:   3    -0.533298930046E+02   -0.30647E+02   -0.30039E+02  3628   0.103E+02
DAV:   4    -0.564181108120E+02   -0.30882E+01   -0.30839E+01  4480   0.250E+01
DAV:   5    -0.564846095409E+02   -0.66499E-01   -0.66475E-01  3756   0.506E+00    0.310E+01
RMM:   6    -0.534561981108E+02    0.30284E+01   -0.31822E+00  4407   0.565E+00    0.178E+01
RMM:   7    -0.523871140985E+02    0.10691E+01   -0.41452E+00  4644   0.702E+00    0.107E+00
RMM:   8    -0.522761351102E+02    0.11098E+00   -0.16864E-01  4885   0.181E+00    0.555E-01
RMM:   9    -0.522728444065E+02    0.32907E-02   -0.99273E-03  5535   0.595E-01    0.113E-01
RMM:  10    -0.522728623893E+02   -0.17983E-04   -0.26342E-03  5510   0.365E-01    0.281E-02
RMM:  11    -0.522729600725E+02   -0.97683E-04   -0.12535E-03  5729   0.254E-01    0.218E-02
RMM:  12    -0.522730101515E+02   -0.50079E-04   -0.55897E-04  5362   0.195E-01    0.127E-02
RMM:  13    -0.522730397219E+02   -0.29570E-04   -0.33131E-04  4839   0.155E-01    0.374E-03
RMM:  14    -0.522730561760E+02   -0.16454E-04   -0.17841E-04  4298   0.129E-01    0.331E-03
RMM:  15    -0.522730649182E+02   -0.87422E-05   -0.10505E-04  3966   0.114E-01    0.110E-03
RMM:  16    -0.522730697147E+02   -0.47966E-05   -0.63289E-05  3602   0.106E-01    0.117E-03
RMM:  17    -0.522730708777E+02   -0.11630E-05   -0.28043E-05  3321   0.102E-01    0.781E-04
RMM:  18    -0.522730718035E+02   -0.92581E-06   -0.28784E-05  3213   0.104E-01    0.448E-04
RMM:  19    -0.522730721839E+02   -0.38036E-06   -0.22880E-05  3077   0.104E-01    0.672E-04
RMM:  20    -0.522730728182E+02   -0.63433E-06   -0.25842E-05  3008   0.106E-01    0.312E-04
RMM:  21    -0.522730734103E+02   -0.59212E-06   -0.25493E-05  2988   0.107E-01    0.494E-04
RMM:  22    -0.522730736298E+02   -0.21947E-06   -0.20894E-05  2887   0.107E-01    0.563E-04
RMM:  23    -0.522730737866E+02   -0.15676E-06   -0.20843E-05  2826   0.108E-01    0.562E-04
RMM:  24    -0.522730742744E+02   -0.48780E-06   -0.23949E-05  2771   0.109E-01    0.582E-04
RMM:  25    -0.522730749459E+02   -0.67152E-06   -0.24911E-05  2749   0.108E-01    0.753E-04
RMM:  26    -0.522730755731E+02   -0.62725E-06   -0.23362E-05  2684   0.105E-01    0.100E-03
RMM:  27    -0.522730760225E+02   -0.44933E-06   -0.20155E-05  2596   0.103E-01    0.120E-03
RMM:  28    -0.522730762326E+02   -0.21009E-06   -0.16758E-05  2521   0.101E-01    0.129E-03
RMM:  29    -0.522730760023E+02    0.23022E-06   -0.12489E-05  2483   0.101E-01    0.121E-03
RMM:  30    -0.522730759963E+02    0.60527E-08   -0.15469E-05  2492   0.103E-01    0.108E-03
RMM:  31    -0.522730758254E+02    0.17085E-06   -0.12825E-05  2439   0.103E-01    0.106E-03
RMM:  32    -0.522730756241E+02    0.20137E-06   -0.12736E-05  2442   0.105E-01    0.103E-03
RMM:  33    -0.522730754360E+02    0.18807E-06   -0.12920E-05  2440   0.106E-01    0.946E-04
RMM:  34    -0.522730752156E+02    0.22038E-06   -0.12657E-05  2438   0.107E-01    0.925E-04
RMM:  35    -0.522730752798E+02   -0.64238E-07   -0.16174E-05  2427   0.108E-01    0.958E-04
RMM:  36    -0.522730756891E+02   -0.40930E-06   -0.19344E-05  2466   0.108E-01    0.104E-03
RMM:  37    -0.522730759747E+02   -0.28557E-06   -0.16772E-05  2440   0.106E-01    0.107E-03
RMM:  38    -0.522730763462E+02   -0.37151E-06   -0.16924E-05  2423   0.105E-01    0.114E-03
RMM:  39    -0.522730764210E+02   -0.74738E-07   -0.13231E-05  2417   0.103E-01    0.118E-03
RMM:  40    -0.522730763656E+02    0.55391E-07   -0.11990E-05  2379   0.103E-01    0.119E-03
RMM:  41    -0.522730764027E+02   -0.37157E-07   -0.12757E-05  2388   0.103E-01    0.124E-03
RMM:  42    -0.522730762394E+02    0.16331E-06   -0.10294E-05  2370   0.103E-01    0.125E-03
RMM:  43    -0.522730761739E+02    0.65554E-07   -0.11927E-05  2400   0.105E-01    0.133E-03
RMM:  44    -0.522730761820E+02   -0.81100E-08   -0.12290E-05  2400   0.105E-01    0.137E-03
RMM:  45    -0.522730761881E+02   -0.60763E-08   -0.12062E-05  2379   0.105E-01    0.138E-03
RMM:  46    -0.522730758978E+02    0.29026E-06   -0.93081E-06  2331   0.105E-01
   1 F= 0.22733586E+01 E0= 0.22733586E+01  d E =-.894233E-11
