 vasp.5.4.4.18Apr17-6-g9f103f2a35 (build Mar 23 2021 02:00:50) complex          
  
 executed on             LinuxIFC date 2022.08.11  08:21:42
 running on   24 total cores
 distrk:  each k-point on   24 cores,    1 groups
 distr:  one band on NCORES_PER_BAND=   6 cores,    4 groups


--------------------------------------------------------------------------------------------------------


 INCAR:
 POTCAR:    PAW_PBE Be_sv 06Sep2000               
 POTCAR:    PAW_PBE Ba_sv 06Sep2000               
 POTCAR:    PAW_PBE H 15Jun2001                   
 POTCAR:    PAW_PBE Be_sv 06Sep2000               
   VRHFIN =Be: s2p0                                                             
   LEXCH  = PE                                                                  
   EATOM  =   398.1457 eV,   29.2629 Ry                                         
                                                                                
   TITEL  = PAW_PBE Be_sv 06Sep2000                                             
   LULTRA =        F    use ultrasoft PP ?                                      
   IUNSCR =        0    unscreen: 0-lin 1-nonlin 2-no                           
   RPACOR =    0.000    partial core radius                                     
   POMASS =    9.013; ZVAL   =    4.000    mass and valenz                      
   RCORE  =    1.800    outmost cutoff radius                                   
   RWIGS  =    1.880; RWIGS  =    0.995    wigner-seitz radius (au A)           
   ENMAX  =  308.768; ENMIN  =  231.576 eV                                      
   ICORE  =        2    local potential                                         
   LCOR   =        T    correct aug charges                                     
   LPAW   =        T    paw PP                                                  
   EAUG   =  780.944                                                            
   RMAX   =    1.838    core radius for proj-oper                               
   RAUG   =    1.300    factor for augmentation sphere                          
   RDEP   =    1.879    radius for radial grids                                 
   RDEPT  =    1.200    core radius for aug-charge                              
                                                                                
   Atomic configuration                                                         
    5 entries                                                                   
     n  l   j            E        occ.                                          
     1  0  0.50      -106.2287   2.0000                                         
     1  0  0.50      -107.5894   0.0000                                         
     2  0  0.50        -5.6162   1.9900                                         
     2  1  0.50        -2.0244   0.0100                                         
     3  2  1.50        -1.3606   0.0000                                         
   Description                                                                  
     l       E           TYP  RCUT    TYP  RCUT                                 
     0   -106.2286628     23  1.500                                             
     0   -107.5894297     23  1.500                                             
     0     -5.6161740     23  1.500                                             
     1     -2.0243506     23  1.800                                             
     1     10.7523704     23  1.800                                             
     2     -1.3605826     15  1.800                                             
  local pseudopotential read in
  kinetic energy density of atom read in
  atomic valenz-charges read in
  non local Contribution for L=           0  read in
    real space projection operators read in
  non local Contribution for L=           0  read in
    real space projection operators read in
  non local Contribution for L=           0  read in
    real space projection operators read in
  non local Contribution for L=           1  read in
    real space projection operators read in
  non local Contribution for L=           1  read in
    real space projection operators read in
    PAW grid and wavefunctions read in
 
   number of l-projection  operators is LMAX  =           5
   number of lm-projection operators is LMMAX =           9
 
 POTCAR:    PAW_PBE Ba_sv 06Sep2000               
   VRHFIN =Ba: 5s5p6s                                                           
   LEXCH  = PE                                                                  
   EATOM  =   700.8560 eV,   51.5115 Ry                                         
                                                                                
   TITEL  = PAW_PBE Ba_sv 06Sep2000                                             
   LULTRA =        F    use ultrasoft PP ?                                      
   IUNSCR =        1    unscreen: 0-lin 1-nonlin 2-no                           
   RPACOR =    2.400    partial core radius                                     
   POMASS =  137.327; ZVAL   =   10.000    mass and valenz                      
   RCORE  =    2.800    outmost cutoff radius                                   
   RWIGS  =    3.740; RWIGS  =    1.979    wigner-seitz radius (au A)           
   ENMAX  =  187.181; ENMIN  =  140.386 eV                                      
   RCLOC  =    2.516    cutoff for local pot                                    
   LCOR   =        T    correct aug charges                                     
   LPAW   =        T    paw PP                                                  
   EAUG   =  351.165                                                            
   DEXC   =    0.000                                                            
   RMAX   =    2.865    core radius for proj-oper                               
   RAUG   =    1.300    factor for augmentation sphere                          
   RDEP   =    2.976    radius for radial grids                                 
   RDEPT  =    2.289    core radius for aug-charge                              
                                                                                
   Atomic configuration                                                         
   13 entries                                                                   
     n  l   j            E        occ.                                          
     1  0  0.50    -37249.5946   2.0000                                         
     2  0  0.50     -5887.1925   2.0000                                         
     2  1  1.50     -5278.3977   6.0000                                         
     3  0  0.50     -1242.7293   2.0000                                         
     3  1  1.50     -1047.6609   6.0000                                         
     3  2  2.50      -764.6158  10.0000                                         
     4  0  0.50      -243.8228   2.0000                                         
     4  1  1.50      -180.9218   6.0000                                         
     4  2  2.50       -89.6477  10.0000                                         
     5  0  0.50       -33.6549   2.0000                                         
     6  0  0.50        -3.2247   1.9900                                         
     5  1  1.50       -18.7193   6.0000                                         
     5  2  2.50        -2.0115   0.0100                                         
   Description                                                                  
     l       E           TYP  RCUT    TYP  RCUT                                 
     0    -33.6549039     23  2.800                                             
     0     -3.2246942     23  2.800                                             
     1    -18.7193050     23  2.700                                             
     1     27.2116520     23  2.700                                             
     2     -2.0115002     23  2.700                                             
     2      0.3057420     23  2.700                                             
  local pseudopotential read in
  partial core-charges read in
  partial kinetic energy density read in
  atomic valenz-charges read in
  non local Contribution for L=           0  read in
    real space projection operators read in
  non local Contribution for L=           0  read in
    real space projection operators read in
  non local Contribution for L=           1  read in
    real space projection operators read in
  non local Contribution for L=           1  read in
    real space projection operators read in
  non local Contribution for L=           2  read in
    real space projection operators read in
  non local Contribution for L=           2  read in
    real space projection operators read in
    PAW grid and wavefunctions read in
 
   number of l-projection  operators is LMAX  =           6
   number of lm-projection operators is LMMAX =          18
 
 POTCAR:    PAW_PBE H 15Jun2001                   
   VRHFIN =H: ultrasoft test                                                    
   LEXCH  = PE                                                                  
   EATOM  =    12.4884 eV,    0.9179 Ry                                         
                                                                                
   TITEL  = PAW_PBE H 15Jun2001                                                 
   LULTRA =        F    use ultrasoft PP ?                                      
   IUNSCR =        0    unscreen: 0-lin 1-nonlin 2-no                           
   RPACOR =    0.000    partial core radius                                     
   POMASS =    1.000; ZVAL   =    1.000    mass and valenz                      
   RCORE  =    1.100    outmost cutoff radius                                   
   RWIGS  =    0.700; RWIGS  =    0.370    wigner-seitz radius (au A)           
   ENMAX  =  250.000; ENMIN  =  200.000 eV                                      
   RCLOC  =    0.701    cutoff for local pot                                    
   LCOR   =        T    correct aug charges                                     
   LPAW   =        T    paw PP                                                  
   EAUG   =  400.000                                                            
   RMAX   =    1.123    core radius for proj-oper                               
   RAUG   =    1.200    factor for augmentation sphere                          
   RDEP   =    1.112    radius for radial grids                                 
   RDEPT  =    0.926    core radius for aug-charge                              
                                                                                
   Atomic configuration                                                         
    2 entries                                                                   
     n  l   j            E        occ.                                          
     1  0  0.50        -6.4927   1.0000                                         
     2  1  0.50        -3.4015   0.0000                                         
   Description                                                                  
     l       E           TYP  RCUT    TYP  RCUT                                 
     0     -6.4927494     23  1.100                                             
     0      6.8029130     23  1.100                                             
     1     -4.0817478     23  1.100                                             
  local pseudopotential read in
  atomic valenz-charges read in
  non local Contribution for L=           0  read in
    real space projection operators read in
  non local Contribution for L=           0  read in
    real space projection operators read in
  non local Contribution for L=           1  read in
    real space projection operators read in
    PAW grid and wavefunctions read in
 
   number of l-projection  operators is LMAX  =           3
   number of lm-projection operators is LMMAX =           5
 
 Optimization of the real space projectors (new method)

 maximal supplied QI-value         = 20.98
 optimisation between [QCUT,QGAM] = [ 12.38, 24.96] = [ 42.89,174.48] Ry 
 Optimized for a Real-space Cutoff    1.39 Angstroem

   l    n(q)    QCUT    max X(q) W(low)/X(q) W(high)/X(q)  e(spline) 
   0     10    12.376    59.662    0.15E-03    0.49E-04    0.16E-05
   0     10    12.376    72.827    0.15E-03    0.49E-04    0.16E-05
   0     10    12.376    15.192    0.16E-03    0.47E-04    0.17E-05
   1     10    12.376    35.807    0.55E-05    0.18E-04    0.18E-06
   1     10    12.376    16.477    0.47E-05    0.16E-04    0.17E-06
 Optimization of the real space projectors (new method)

 maximal supplied QI-value         = 13.42
 optimisation between [QCUT,QGAM] = [ 12.48, 25.09] = [ 43.60,176.28] Ry 
 Optimized for a Real-space Cutoff    1.56 Angstroem

   l    n(q)    QCUT    max X(q) W(low)/X(q) W(high)/X(q)  e(spline) 
   0     12    12.478    13.244    0.30E-04    0.22E-04    0.29E-06
   0     12    12.478    14.240    0.46E-04    0.37E-04    0.41E-06
   1     11    12.478     4.828    0.23E-04    0.85E-05    0.32E-06
   1     11    12.478     3.934    0.89E-04    0.38E-05    0.96E-06
   2     11    12.478    87.714    0.11E-03    0.31E-03    0.12E-05
   2     11    12.478    59.874    0.10E-03    0.30E-03    0.11E-05
 Optimization of the real space projectors (new method)

 maximal supplied QI-value         = 34.20
 optimisation between [QCUT,QGAM] = [ 12.31, 24.97] = [ 42.46,174.58] Ry 
 Optimized for a Real-space Cutoff    1.13 Angstroem

   l    n(q)    QCUT    max X(q) W(low)/X(q) W(high)/X(q)  e(spline) 
   0      8    12.313    19.460    0.10E-03    0.25E-03    0.27E-06
   0      8    12.313    12.209    0.92E-04    0.23E-03    0.26E-06
   1      8    12.313     4.655    0.24E-03    0.28E-03    0.15E-06
  PAW_PBE Be_sv 06Sep2000               :
 energy of atom  1       EATOM= -398.1457
 kinetic energy error for atom=    0.0015 (will be added to EATOM!!)
  PAW_PBE Ba_sv 06Sep2000               :
 energy of atom  2       EATOM= -700.8560
 kinetic energy error for atom=    0.0003 (will be added to EATOM!!)
  PAW_PBE H 15Jun2001                   :
 energy of atom  3       EATOM=  -12.4884
 kinetic energy error for atom=    0.0004 (will be added to EATOM!!)
 
 
 POSCAR: 2:C2/c(15) PRIMITIVE                    
  positions in direct lattice
  velocities in cartesian coordinates
 exchange correlation table for  LEXCH =        8
   RHO(1)=    0.500       N(1)  =     2000
   RHO(2)=  100.500       N(2)  =     4000
 


--------------------------------------------------------------------------------------------------------


 ion  position               nearest neighbor table
   1  0.295  0.705  0.750-  11 1.29  16 1.29  10 1.30  20 1.30   4 2.73   4 2.80   4 2.80   3 2.86
                             3 2.86   4 2.88
   2  0.705  0.295  0.250-   9 1.29  15 1.29  12 1.30  19 1.30   3 2.73   3 2.80   3 2.80   4 2.86
                             4 2.86   3 2.88
   3  0.217  0.783  0.250-  14 2.15   7 2.15   7 2.16  14 2.16  15 2.25   9 2.25  17 2.26   5 2.26
                            13 2.27   8 2.27  19 2.28  12 2.28  18 2.30   6 2.30   5 2.31  17 2.31
   4  0.783  0.217  0.750-   8 2.15  13 2.15  13 2.16   8 2.16  11 2.25  16 2.25   6 2.26  18 2.26
                             7 2.27  14 2.27  10 2.28  20 2.28   5 2.30  17 2.30  18 2.31   6 2.31
   5  0.235  0.256  0.049-   7 0.78   3 2.26   4 2.30   3 2.31
   6  0.765  0.744  0.951-   8 0.78   4 2.26   3 2.30   4 2.31
   7  0.080  0.263  0.123-   5 0.78   3 2.15   3 2.16   4 2.27
   8  0.920  0.737  0.877-   6 0.78   4 2.15   4 2.16   3 2.27
   9  0.463  0.321  0.386-   2 1.29   3 2.25   3 2.35   4 2.36
  10  0.008  0.674  0.611-   1 1.30   4 2.28   3 2.37   4 2.41
  11  0.537  0.679  0.614-   1 1.29   4 2.25   4 2.35   3 2.36
  12  0.992  0.326  0.389-   2 1.30   3 2.28   4 2.37   3 2.41
  13  0.263  0.080  0.623-  18 0.78   4 2.15   4 2.16   3 2.27
  14  0.737  0.920  0.377-  17 0.78   3 2.15   3 2.16   4 2.27
  15  0.679  0.537  0.114-   2 1.29   3 2.25   3 2.35   4 2.36
  16  0.321  0.463  0.886-   1 1.29   4 2.25   4 2.35   3 2.36
  17  0.744  0.765  0.451-  14 0.78   3 2.26   4 2.30   3 2.31
  18  0.256  0.235  0.549-  13 0.78   4 2.26   3 2.30   4 2.31
  19  0.674  0.008  0.111-   2 1.30   3 2.28   4 2.37   3 2.41
  20  0.326  0.992  0.889-   1 1.30   4 2.28   3 2.37   4 2.41
 
  Warning from LATTYP: Got some problem with cell dimensions!
  Tried to take original basis but could not verify dimensions!
  LATTYP: Found a base centered monoclinic cell.
 ALAT       =     5.5984571718
 B/A-ratio  =     1.0024783105
 C/A-ratio  =     2.0829538046
 COS(beta)  =    -0.6206966971
  
  Lattice vectors:
  
 A1 = (   2.7594816475,  -2.8061659436,   0.4700443738)
 A2 = (   2.7594816475,   2.8061659436,   0.4700443738)
 A3 = ( -11.0375559524,   0.0000000000,   3.7628342419)


Analysis of symmetry for initial positions (statically):
=====================================================================
 Subroutine PRICEL returns:
 Original cell was already a primitive cell.
 

 Routine SETGRP: Setting up the symmetry group for a 
 base centered monoclinic supercell.


 Subroutine GETGRP returns: Found  4 space group operations
 (whereof  2 operations were pure point group operations)
 out of a pool of  4 trial point group operations.


The static configuration has the point symmetry S_2 .
 The point group associated with its full space group is C_2h.


Analysis of symmetry for dynamics (positions and initial velocities):
=====================================================================
 Subroutine PRICEL returns:
 Original cell was already a primitive cell.
 

 Routine SETGRP: Setting up the symmetry group for a 
 base centered monoclinic supercell.


 Subroutine GETGRP returns: Found  4 space group operations
 (whereof  2 operations were pure point group operations)
 out of a pool of  4 trial point group operations.


The dynamic configuration has the point symmetry S_2 .
 The point group associated with its full space group is C_2h.


 Subroutine INISYM returns: Found  4 space group operations
 (whereof  2 operations are pure point group operations),
 and found     1 'primitive' translations

 
 
 KPOINTS: pymatgen with grid density = 3985 / numb

Automatic generation of k-mesh.
Space group operators:
 irot       det(A)        alpha          n_x          n_y          n_z        tau_x        tau_y        tau_z
    1     1.000000     0.000000     1.000000     0.000000     0.000000     0.000000     0.000000     0.000000
    2    -1.000000     0.000000     1.000000     0.000000     0.000000     0.000000     0.000000     0.000000
    3     1.000000   180.000000     0.000000     1.000000     0.000000    -1.000000    -1.000000    -0.500000
    4    -1.000000   180.000000     0.000000     1.000000     0.000000    -1.000000    -1.000000    -0.500000
 
 Subroutine IBZKPT returns following result:
 ===========================================
 
 Found     42 irreducible k-points:
 
 Following reciprocal coordinates:
            Coordinates               Weight
  0.083333  0.083333  0.125000      2.000000
  0.250000  0.083333  0.125000      4.000000
  0.416667  0.083333  0.125000      4.000000
 -0.416667  0.083333  0.125000      4.000000
 -0.250000  0.083333  0.125000      4.000000
 -0.083333  0.083333  0.125000      4.000000
  0.250000  0.250000  0.125000      2.000000
  0.416667  0.250000  0.125000      4.000000
 -0.416667  0.250000  0.125000      4.000000
 -0.250000  0.250000  0.125000      4.000000
 -0.083333  0.250000  0.125000      4.000000
  0.416667  0.416667  0.125000      2.000000
 -0.416667  0.416667  0.125000      4.000000
 -0.250000  0.416667  0.125000      4.000000
 -0.083333  0.416667  0.125000      4.000000
 -0.416667 -0.416667  0.125000      2.000000
 -0.250000 -0.416667  0.125000      4.000000
 -0.083333 -0.416667  0.125000      4.000000
 -0.250000 -0.250000  0.125000      2.000000
 -0.083333 -0.250000  0.125000      4.000000
 -0.083333 -0.083333  0.125000      2.000000
  0.083333  0.083333  0.375000      2.000000
  0.250000  0.083333  0.375000      4.000000
  0.416667  0.083333  0.375000      4.000000
 -0.416667  0.083333  0.375000      4.000000
 -0.250000  0.083333  0.375000      4.000000
 -0.083333  0.083333  0.375000      4.000000
  0.250000  0.250000  0.375000      2.000000
  0.416667  0.250000  0.375000      4.000000
 -0.416667  0.250000  0.375000      4.000000
 -0.250000  0.250000  0.375000      4.000000
 -0.083333  0.250000  0.375000      4.000000
  0.416667  0.416667  0.375000      2.000000
 -0.416667  0.416667  0.375000      4.000000
 -0.250000  0.416667  0.375000      4.000000
 -0.083333  0.416667  0.375000      4.000000
 -0.416667 -0.416667  0.375000      2.000000
 -0.250000 -0.416667  0.375000      4.000000
 -0.083333 -0.416667  0.375000      4.000000
 -0.250000 -0.250000  0.375000      2.000000
 -0.083333 -0.250000  0.375000      4.000000
 -0.083333 -0.083333  0.375000      2.000000
 
 Following cartesian coordinates:
            Coordinates               Weight
  0.033972  0.000000 -0.022154      2.000000
  0.064172  0.029697 -0.022156      4.000000
  0.094371  0.059393 -0.022157      4.000000
 -0.056625 -0.089090 -0.022148      4.000000
 -0.026426 -0.059393 -0.022150      4.000000
  0.003773 -0.029697 -0.022152      4.000000
  0.094371  0.000000 -0.022157      2.000000
  0.124570  0.029697 -0.022159      4.000000
 -0.026426 -0.118786 -0.022150      4.000000
  0.003773 -0.089090 -0.022152      4.000000
  0.033972 -0.059393 -0.022154      4.000000
  0.154769  0.000000 -0.022161      2.000000
  0.003773 -0.148483 -0.022152      4.000000
  0.033972 -0.118786 -0.022154      4.000000
  0.064172 -0.089090 -0.022156      4.000000
 -0.147223  0.000000 -0.022142      2.000000
 -0.117024  0.029697 -0.022144      4.000000
 -0.086824  0.059393 -0.022146      4.000000
 -0.086824  0.000000 -0.022146      2.000000
 -0.056625  0.029697 -0.022148      4.000000
 -0.026426  0.000000 -0.022150      2.000000
  0.041519  0.000000 -0.066457      2.000000
  0.071718  0.029697 -0.066459      4.000000
  0.101917  0.059393 -0.066461      4.000000
 -0.049079 -0.089090 -0.066451      4.000000
 -0.018880 -0.059393 -0.066453      4.000000
  0.011320 -0.029697 -0.066455      4.000000
  0.101917  0.000000 -0.066461      2.000000
  0.132117  0.029697 -0.066463      4.000000
 -0.018880 -0.118786 -0.066453      4.000000
  0.011320 -0.089090 -0.066455      4.000000
  0.041519 -0.059393 -0.066457      4.000000
  0.162316  0.000000 -0.066465      2.000000
  0.011320 -0.148483 -0.066455      4.000000
  0.041519 -0.118786 -0.066457      4.000000
  0.071718 -0.089090 -0.066459      4.000000
 -0.139676  0.000000 -0.066445      2.000000
 -0.109477  0.029697 -0.066447      4.000000
 -0.079278  0.059393 -0.066449      4.000000
 -0.079278  0.000000 -0.066449      2.000000
 -0.049079  0.029697 -0.066451      4.000000
 -0.018880  0.000000 -0.066453      2.000000
 


--------------------------------------------------------------------------------------------------------




 Dimension of arrays:
   k-points           NKPTS =     42   k-points in BZ     NKDIM =     42   number of bands    NBANDS=     36
   number of dos      NEDOS =   6001   number of ions     NIONS =     20
   non local maximal  LDIM  =      6   non local SUM 2l+1 LMDIM =     18
   total plane-waves  NPLWV =  49152
   max r-space proj   IRMAX =   8999   max aug-charges    IRDMAX=  35401
   dimension x,y,z NGX =    32 NGY =   32 NGZ =   48
   dimension x,y,z NGXF=    64 NGYF=   64 NGZF=   96
   support grid    NGXF=    64 NGYF=   64 NGZF=   96
   ions per type =               2   2  16
   NGX,Y,Z   is equivalent  to a cutoff of  13.42, 13.42, 14.14 a.u.
   NGXF,Y,Z  is equivalent  to a cutoff of  26.84, 26.84, 28.28 a.u.

 SYSTEM =  LOO                                     
 POSCAR =  2:C2/c(15) PRIMITIVE                    

 Startparameter for this run:
   NWRITE =      2    write-flag & timer
   PREC   = accura    normal or accurate (medium, high low for compatibility)
   ISTART =      0    job   : 0-new  1-cont  2-samecut
   ICHARG =      2    charge: 1-file 2-atom 10-const
   ISPIN  =      1    spin polarized calculation?
   LNONCOLLINEAR =      F non collinear calculations
   LSORBIT =      F    spin-orbit coupling
   INIWAV =      1    electr: 0-lowe 1-rand  2-diag
   LASPH  =      F    aspherical Exc in radial PAW
   METAGGA=      F    non-selfconsistent MetaGGA calc.

 Electronic Relaxation 1
   ENCUT  =  600.0 eV  44.10 Ry    6.64 a.u.   7.92  7.92 11.27*2*pi/ulx,y,z
   ENINI  =  600.0     initial cutoff
   ENAUG  =  780.9 eV  augmentation charge cutoff
   NELM   =    130;   NELMIN=  2; NELMDL=  0     # of ELM steps 
   EDIFF  = 0.1E-05   stopping-criterion for ELM
   LREAL  =      T    real-space projection
   NLSPLINE    = F    spline interpolate recip. space projectors
   LCOMPAT=      F    compatible to vasp.4.4
   GGA_COMPAT  = T    GGA compatible to vasp.4.4-vasp.4.6
   LMAXPAW     = -100 max onsite density
   LMAXMIX     =    2 max onsite mixed and CHGCAR
   VOSKOWN=      0    Vosko Wilk Nusair interpolation
   ROPT   =   -0.00025  -0.00025  -0.00025
 Ionic relaxation
   EDIFFG = -.1E-02   stopping-criterion for IOM
   NSW    =      0    number of steps for IOM
   NBLOCK =      1;   KBLOCK =      1    inner block; outer block 
   IBRION =     -1    ionic relax: 0-MD 1-quasi-New 2-CG
   NFREE  =      0    steps in history (QN), initial steepest desc. (CG)
   ISIF   =      1    stress and relaxation
   IWAVPR =     10    prediction:  0-non 1-charg 2-wave 3-comb
   ISYM   =      2    0-nonsym 1-usesym 2-fastsym
   LCORR  =      T    Harris-Foulkes like correction to forces

   POTIM  = 0.1000    time-step for ionic-motion
   TEIN   =    0.0    initial temperature
   TEBEG  =    0.0;   TEEND  =   0.0 temperature during run
   SMASS  =  -3.00    Nose mass-parameter (am)
   estimated Nose-frequenzy (Omega)   =  0.10E-29 period in steps =****** mass=  -0.359E-27a.u.
   SCALEE = 1.0000    scale energy and forces
   NPACO  =    256;   APACO  = 16.0  distance and # of slots for P.C.
   PSTRESS= 1000.0 pullay stress

  Mass of Ions in am
   POMASS =   9.01137.33  1.00
  Ionic Valenz
   ZVAL   =   4.00 10.00  1.00
  Atomic Wigner-Seitz radii
   RWIGS  =  -1.00 -1.00 -1.00
  virtual crystal weights 
   VCA    =   1.00  1.00  1.00
   NELECT =      44.0000    total number of electrons
   NUPDOWN=      -1.0000    fix difference up-down

 DOS related values:
   EMIN   = -20.00;   EMAX   = 20.00  energy-range for DOS
   EFERMI =   0.00
   ISMEAR =     0;   SIGMA  =   0.05  broadening in eV -4-tet -1-fermi 0-gaus

 Electronic relaxation 2 (details)
   IALGO  =     68    algorithm
   LDIAG  =      T    sub-space diagonalisation (order eigenvalues)
   LSUBROT=      F    optimize rotation matrix (better conditioning)
   TURBO    =      0    0=normal 1=particle mesh
   IRESTART =      0    0=no restart 2=restart with 2 vectors
   NREBOOT  =      0    no. of reboots
   NMIN     =      0    reboot dimension
   EREF     =   0.00    reference energy to select bands
   IMIX   =      4    mixing-type and parameters
     AMIX     =   0.40;   BMIX     =  1.00
     AMIX_MAG =   1.60;   BMIX_MAG =  1.00
     AMIN     =   0.10
     WC   =   100.;   INIMIX=   1;  MIXPRE=   1;  MAXMIX= -45

 Intra band minimization:
   WEIMIN = 0.0000     energy-eigenvalue tresh-hold
   EBREAK =  0.69E-08  absolut break condition
   DEPER  =   0.30     relativ break condition  

   TIME   =   0.40     timestep for ELM

  volume/ion in A,a.u.               =       4.37        29.49
  Fermi-wavevector in a.u.,A,eV,Ry     =   1.302367  2.461117 23.077658  1.696160
  Thomas-Fermi vector in A             =   2.433440
 
 Write flags
   LWAVE        =      T    write WAVECAR
   LDOWNSAMPLE  =      F    k-point downsampling of WAVECAR
   LCHARG       =      T    write CHGCAR
   LVTOT        =      F    write LOCPOT, total local potential
   LVHAR        =      F    write LOCPOT, Hartree potential only
   LELF         =      T    write electronic localiz. function (ELF)
   LORBIT       =     11    0 simple, 1 ext, 2 COOP (PROOUT), +10 PAW based schemes


 Dipole corrections
   LMONO  =      F    monopole corrections only (constant potential shift)
   LDIPOL =      F    correct potential (dipole corrections)
   IDIPOL =      0    1-x, 2-y, 3-z, 4-all directions 
   EPSILON=  1.0000000 bulk dielectric constant

 Exchange correlation treatment:
   GGA     =    --    GGA type
   LEXCH   =     8    internal setting for exchange type
   VOSKOWN=      0    Vosko Wilk Nusair interpolation
   LHFCALC =     F    Hartree Fock is set to
   LHFONE  =     F    Hartree Fock one center treatment
   AEXX    =    0.0000 exact exchange contribution

 Linear response parameters
   LEPSILON=     F    determine dielectric tensor
   LRPA    =     F    only Hartree local field effects (RPA)
   LNABLA  =     F    use nabla operator in PAW spheres
   LVEL    =     F    velocity operator in full k-point grid
   LINTERFAST=   F  fast interpolation
   KINTER  =     0    interpolate to denser k-point grid
   CSHIFT  =0.1000    complex shift for real part using Kramers Kronig
   OMEGAMAX=  -1.0    maximum frequency
   DEG_THRESHOLD= 0.2000000E-02 threshold for treating states as degnerate
   RTIME   =   -0.100 relaxation time in fs
  (WPLASMAI=    0.000 imaginary part of plasma frequency in eV, 0.658/RTIME)
   DFIELD  = 0.0000000 0.0000000 0.0000000 field for delta impulse in time
 
 Orbital magnetization related:
   ORBITALMAG=     F  switch on orbital magnetization
   LCHIMAG   =     F  perturbation theory with respect to B field
   DQ        =  0.001000  dq finite difference perturbation B field
   LLRAUG    =     F  two centre corrections for induced B field



--------------------------------------------------------------------------------------------------------


 Static calculation
 charge density and potential will be updated during run
 non-spin polarized calculation
 RMM-DIIS sequential band-by-band and
  variant of blocked Davidson during initial phase
 perform sub-space diagonalisation
    before iterative eigenvector-optimisation
 modified Broyden-mixing scheme, WC =      100.0
 initial mixing is a Kerker type mixing with AMIX =  0.4000 and BMIX =      1.0000
 Hartree-type preconditioning will be used
 using additional bands           14
 real space projection scheme for non local part
 use partial core corrections
 calculate Harris-corrections to forces 
   (improved forces if not selfconsistent)
 use gradient corrections 
 use of overlap-Matrix (Vanderbilt PP)
 Gauss-broadening in eV      SIGMA  =   0.05


--------------------------------------------------------------------------------------------------------


  energy-cutoff  :      600.00
  volume of cell :       87.39
      direct lattice vectors                 reciprocal lattice vectors
     2.759481647  2.806165944  0.470044374     0.181195477  0.178179056 -0.000011901
     2.759481647 -2.806165944  0.470044374     0.181195477 -0.178179056 -0.000011901
    -0.000370638  0.000000000 -5.643011737     0.030185978  0.000000000 -0.177212318

  length of vectors
     3.963615519  3.963615519  5.643011749     0.254125121  0.254125121  0.179764843


 
 k-points in units of 2pi/SCALE and weight: pymatgen with grid density = 3985 / numb
   0.03397249  0.00000000 -0.02215352       0.014
   0.06417174  0.02969651 -0.02215551       0.028
   0.09437099  0.05939302 -0.02215749       0.028
  -0.05662525 -0.08908953 -0.02214757       0.028
  -0.02642600 -0.05939302 -0.02214956       0.028
   0.00377325 -0.02969651 -0.02215154       0.028
   0.09437099  0.00000000 -0.02215749       0.014
   0.12457023  0.02969651 -0.02215947       0.028
  -0.02642600 -0.11878604 -0.02214956       0.028
   0.00377325 -0.08908953 -0.02215154       0.028
   0.03397249 -0.05939302 -0.02215352       0.028
   0.15476948  0.00000000 -0.02216146       0.014
   0.00377325 -0.14848255 -0.02215154       0.028
   0.03397249 -0.11878604 -0.02215352       0.028
   0.06417174 -0.08908953 -0.02215551       0.028
  -0.14722298  0.00000000 -0.02214162       0.014
  -0.11702374  0.02969651 -0.02214361       0.028
  -0.08682449  0.05939302 -0.02214559       0.028
  -0.08682449  0.00000000 -0.02214559       0.014
  -0.05662525  0.02969651 -0.02214757       0.028
  -0.02642600  0.00000000 -0.02214956       0.014
   0.04151899  0.00000000 -0.06645660       0.014
   0.07171823  0.02969651 -0.06645859       0.028
   0.10191748  0.05939302 -0.06646057       0.028
  -0.04907875 -0.08908953 -0.06645065       0.028
  -0.01887950 -0.05939302 -0.06645264       0.028
   0.01131974 -0.02969651 -0.06645462       0.028
   0.10191748  0.00000000 -0.06646057       0.014
   0.13211673  0.02969651 -0.06646255       0.028
  -0.01887950 -0.11878604 -0.06645264       0.028
   0.01131974 -0.08908953 -0.06645462       0.028
   0.04151899 -0.05939302 -0.06645660       0.028
   0.16231597  0.00000000 -0.06646454       0.014
   0.01131974 -0.14848255 -0.06645462       0.028
   0.04151899 -0.11878604 -0.06645660       0.028
   0.07171823 -0.08908953 -0.06645859       0.028
  -0.13967649  0.00000000 -0.06644470       0.014
  -0.10947724  0.02969651 -0.06644669       0.028
  -0.07927800  0.05939302 -0.06644867       0.028
  -0.07927800  0.00000000 -0.06644867       0.014
  -0.04907875  0.02969651 -0.06645065       0.028
  -0.01887950  0.00000000 -0.06645264       0.014
 
 k-points in reciprocal lattice and weights: pymatgen with grid density = 3985 / numb
   0.08333333  0.08333333  0.12500000       0.014
   0.25000000  0.08333333  0.12500000       0.028
   0.41666667  0.08333333  0.12500000       0.028
  -0.41666667  0.08333333  0.12500000       0.028
  -0.25000000  0.08333333  0.12500000       0.028
  -0.08333333  0.08333333  0.12500000       0.028
   0.25000000  0.25000000  0.12500000       0.014
   0.41666667  0.25000000  0.12500000       0.028
  -0.41666667  0.25000000  0.12500000       0.028
  -0.25000000  0.25000000  0.12500000       0.028
  -0.08333333  0.25000000  0.12500000       0.028
   0.41666667  0.41666667  0.12500000       0.014
  -0.41666667  0.41666667  0.12500000       0.028
  -0.25000000  0.41666667  0.12500000       0.028
  -0.08333333  0.41666667  0.12500000       0.028
  -0.41666667 -0.41666667  0.12500000       0.014
  -0.25000000 -0.41666667  0.12500000       0.028
  -0.08333333 -0.41666667  0.12500000       0.028
  -0.25000000 -0.25000000  0.12500000       0.014
  -0.08333333 -0.25000000  0.12500000       0.028
  -0.08333333 -0.08333333  0.12500000       0.014
   0.08333333  0.08333333  0.37500000       0.014
   0.25000000  0.08333333  0.37500000       0.028
   0.41666667  0.08333333  0.37500000       0.028
  -0.41666667  0.08333333  0.37500000       0.028
  -0.25000000  0.08333333  0.37500000       0.028
  -0.08333333  0.08333333  0.37500000       0.028
   0.25000000  0.25000000  0.37500000       0.014
   0.41666667  0.25000000  0.37500000       0.028
  -0.41666667  0.25000000  0.37500000       0.028
  -0.25000000  0.25000000  0.37500000       0.028
  -0.08333333  0.25000000  0.37500000       0.028
   0.41666667  0.41666667  0.37500000       0.014
  -0.41666667  0.41666667  0.37500000       0.028
  -0.25000000  0.41666667  0.37500000       0.028
  -0.08333333  0.41666667  0.37500000       0.028
  -0.41666667 -0.41666667  0.37500000       0.014
  -0.25000000 -0.41666667  0.37500000       0.028
  -0.08333333 -0.41666667  0.37500000       0.028
  -0.25000000 -0.25000000  0.37500000       0.014
  -0.08333333 -0.25000000  0.37500000       0.028
  -0.08333333 -0.08333333  0.37500000       0.014
 
 position of ions in fractional coordinates (direct lattice) 
   0.29539108  0.70460892  0.75000000
   0.70460892  0.29539108  0.25000000
   0.21738873  0.78261127  0.25000000
   0.78261127  0.21738873  0.75000000
   0.23515859  0.25630295  0.04853560
   0.76484141  0.74369705  0.95146440
   0.08022654  0.26287423  0.12300121
   0.91977346  0.73712577  0.87699879
   0.46259920  0.32136498  0.38599950
   0.00836990  0.67419559  0.61081756
   0.53740080  0.67863502  0.61400050
   0.99163010  0.32580441  0.38918244
   0.26287423  0.08022654  0.62300121
   0.73712577  0.91977346  0.37699879
   0.67863502  0.53740080  0.11400050
   0.32136498  0.46259920  0.88599950
   0.74369705  0.76484141  0.45146440
   0.25630295  0.23515859  0.54853560
   0.67419559  0.00836990  0.11081756
   0.32580441  0.99163010  0.88918244
 
 position of ions in cartesian coordinates  (Angst):
   2.75920367 -1.14833315 -3.76221443
   2.75938899  1.14833315 -0.94070856
   2.75938899 -1.58610822 -0.94070856
   2.75920367  1.58610822 -3.76221443
   1.35616112 -0.05933460 -0.04287822
   4.16243154  0.05933460 -4.66004477
   0.94673469 -0.51253971 -0.53282470
   4.57185797  0.51253971 -4.17009829
   2.16319172  0.39632666 -1.80970174
   1.88330056 -1.86841737 -3.12601462
   3.35540094 -0.39632666 -2.89322125
   3.63529210  1.86841737 -1.57690837
   0.94654937  0.51253971 -3.35433057
   4.57204329 -0.51253971 -1.34859242
   3.35558626  0.39632666 -0.07171538
   2.16300640 -0.39632666 -4.63120761
   4.16261686 -0.05933460 -1.83853890
   1.35597580  0.05933460 -2.86438409
   1.88348588  1.86841737 -0.30450875
   3.63510678 -1.86841737 -4.39841424
 


--------------------------------------------------------------------------------------------------------


 k-point  1 :   0.0833 0.0833 0.1250  plane waves:    2900
 k-point  2 :   0.2500 0.0833 0.1250  plane waves:    2913
 k-point  3 :   0.4167 0.0833 0.1250  plane waves:    2929
 k-point  4 :  -0.4167 0.0833 0.1250  plane waves:    2924
 k-point  5 :  -0.2500 0.0833 0.1250  plane waves:    2915
 k-point  6 :  -0.0833 0.0833 0.1250  plane waves:    2900
 k-point  7 :   0.2500 0.2500 0.1250  plane waves:    2926
 k-point  8 :   0.4167 0.2500 0.1250  plane waves:    2932
 k-point  9 :  -0.4167 0.2500 0.1250  plane waves:    2922
 k-point 10 :  -0.2500 0.2500 0.1250  plane waves:    2921
 k-point 11 :  -0.0833 0.2500 0.1250  plane waves:    2912
 k-point 12 :   0.4167 0.4167 0.1250  plane waves:    2931
 k-point 13 :  -0.4167 0.4167 0.1250  plane waves:    2922
 k-point 14 :  -0.2500 0.4167 0.1250  plane waves:    2931
 k-point 15 :  -0.0833 0.4167 0.1250  plane waves:    2916
 k-point 16 :  -0.4167-0.4167 0.1250  plane waves:    2905
 k-point 17 :  -0.2500-0.4167 0.1250  plane waves:    2914
 k-point 18 :  -0.0833-0.4167 0.1250  plane waves:    2917
 k-point 19 :  -0.2500-0.2500 0.1250  plane waves:    2908
 k-point 20 :  -0.0833-0.2500 0.1250  plane waves:    2907
 k-point 21 :  -0.0833-0.0833 0.1250  plane waves:    2906
 k-point 22 :   0.0833 0.0833 0.3750  plane waves:    2900
 k-point 23 :   0.2500 0.0833 0.3750  plane waves:    2920
 k-point 24 :   0.4167 0.0833 0.3750  plane waves:    2925
 k-point 25 :  -0.4167 0.0833 0.3750  plane waves:    2914
 k-point 26 :  -0.2500 0.0833 0.3750  plane waves:    2912
 k-point 27 :  -0.0833 0.0833 0.3750  plane waves:    2902
 k-point 28 :   0.2500 0.2500 0.3750  plane waves:    2931
 k-point 29 :   0.4167 0.2500 0.3750  plane waves:    2928
 k-point 30 :  -0.4167 0.2500 0.3750  plane waves:    2918
 k-point 31 :  -0.2500 0.2500 0.3750  plane waves:    2919
 k-point 32 :  -0.0833 0.2500 0.3750  plane waves:    2913
 k-point 33 :   0.4167 0.4167 0.3750  plane waves:    2936
 k-point 34 :  -0.4167 0.4167 0.3750  plane waves:    2924
 k-point 35 :  -0.2500 0.4167 0.3750  plane waves:    2909
 k-point 36 :  -0.0833 0.4167 0.3750  plane waves:    2912
 k-point 37 :  -0.4167-0.4167 0.3750  plane waves:    2926
 k-point 38 :  -0.2500-0.4167 0.3750  plane waves:    2919
 k-point 39 :  -0.0833-0.4167 0.3750  plane waves:    2905
 k-point 40 :  -0.2500-0.2500 0.3750  plane waves:    2923
 k-point 41 :  -0.0833-0.2500 0.3750  plane waves:    2914
 k-point 42 :  -0.0833-0.0833 0.3750  plane waves:    2896

 maximum and minimum number of plane-waves per node :       500      470

 maximum number of plane-waves:      2936
 maximum index in each direction: 
   IXMAX=    8   IYMAX=    8   IZMAX=   11
   IXMIN=   -8   IYMIN=   -8   IZMIN=  -11


 real space projection operators:
  total allocation   :       5355.19 KBytes
  max/ min on nodes  :       1000.10        828.20


 parallel 3D FFT for wavefunctions:
    minimum data exchange during FFTs selected (reduces bandwidth)
 parallel 3D FFT for charge:
    minimum data exchange during FFTs selected (reduces bandwidth)


 total amount of memory used by VASP MPI-rank0    40003. kBytes
=======================================================================

   base      :      30000. kBytes
   nonlr-proj:       4289. kBytes
   fftplans  :        890. kBytes
   grid      :       1569. kBytes
   one-center:         62. kBytes
   wavefun   :       3193. kBytes
 
     INWAV:  cpu time    0.0000: real time    0.0000
 Broyden mixing: mesh for mixing (old mesh)
   NGX = 15   NGY = 15   NGZ = 23
  (NGX  = 64   NGY  = 64   NGZ  = 96)
  gives a total of   5175 points

 initial charge density was supplied:
 charge density of overlapping atoms calculated
 number of electron      44.0000000 magnetization 
 keeping initial charge density in first step


--------------------------------------------------------------------------------------------------------


 Maximum index for non-local projection operator         1685
 Maximum index for augmentation-charges         1932 (set IRDMAX)


--------------------------------------------------------------------------------------------------------


 First call to EWALD:  gamma=   0.399
 Maximum number of real-space cells 3x 3x 2
 Maximum number of reciprocal cells 3x 3x 3

    FEWALD:  cpu time    0.0013: real time    0.0014


--------------------------------------- Iteration      1(   1)  ---------------------------------------


    POTLOK:  cpu time    0.0103: real time    0.0106
    SETDIJ:  cpu time    0.0041: real time    0.0042
     EDDAV:  cpu time    0.9207: real time    0.9291
       DOS:  cpu time    0.0026: real time    0.0026
    --------------------------------------------
      LOOP:  cpu time    0.9377: real time    0.9465

 eigenvalue-minimisations  :  3904
 total energy-change (2. order) : 0.3359640E+03  (-0.2329124E+04)
 number of electron      44.0000000 magnetization 
 augmentation part       44.0000000 magnetization 

 Free energy of the ion-electron system (eV)
  ---------------------------------------------------
  alpha Z        PSCENC =       314.56504561
  Ewald energy   TEWEN  =     -2096.28676081
  -Hartree energ DENC   =      -176.90338391
  -exchange      EXHF   =         0.00000000
  -V(xc)+E(xc)   XCENC  =       140.10290714
  PAW double counting   =      1338.73365349    -1405.83620209
  entropy T*S    EENTRO =        -0.00470859
  eigenvalues    EBANDS =      -176.21417596
  atomic energy  EATOM  =      2397.80759001
  Solvation  Ediel_sol  =         0.00000000
  ---------------------------------------------------
  free energy    TOTEN  =       335.96396488 eV

  energy without entropy =      335.96867348  energy(sigma->0) =      335.96631918


--------------------------------------------------------------------------------------------------------




--------------------------------------- Iteration      1(   2)  ---------------------------------------


     EDDAV:  cpu time    0.8556: real time    0.8626
       DOS:  cpu time    0.0031: real time    0.0032
    --------------------------------------------
      LOOP:  cpu time    0.8588: real time    0.8657

 eigenvalue-minimisations  :  3540
 total energy-change (2. order) :-0.3586468E+03  (-0.3321169E+03)
 number of electron      44.0000000 magnetization 
 augmentation part       44.0000000 magnetization 

 Free energy of the ion-electron system (eV)
  ---------------------------------------------------
  alpha Z        PSCENC =       314.56504561
  Ewald energy   TEWEN  =     -2096.28676081
  -Hartree energ DENC   =      -176.90338391
  -exchange      EXHF   =         0.00000000
  -V(xc)+E(xc)   XCENC  =       140.10290714
  PAW double counting   =      1338.73365349    -1405.83620209
  entropy T*S    EENTRO =        -0.00000000
  eigenvalues    EBANDS =      -534.86568040
  atomic energy  EATOM  =      2397.80759001
  Solvation  Ediel_sol  =         0.00000000
  ---------------------------------------------------
  free energy    TOTEN  =       -22.68283097 eV

  energy without entropy =      -22.68283097  energy(sigma->0) =      -22.68283097


--------------------------------------------------------------------------------------------------------




--------------------------------------- Iteration      1(   3)  ---------------------------------------


     EDDAV:  cpu time    0.8777: real time    0.8849
       DOS:  cpu time    0.0034: real time    0.0034
    --------------------------------------------
      LOOP:  cpu time    0.8811: real time    0.8883

 eigenvalue-minimisations  :  3628
 total energy-change (2. order) :-0.3064706E+02  (-0.3003937E+02)
 number of electron      44.0000000 magnetization 
 augmentation part       44.0000000 magnetization 

 Free energy of the ion-electron system (eV)
  ---------------------------------------------------
  alpha Z        PSCENC =       314.56504561
  Ewald energy   TEWEN  =     -2096.28676081
  -Hartree energ DENC   =      -176.90338391
  -exchange      EXHF   =         0.00000000
  -V(xc)+E(xc)   XCENC  =       140.10290714
  PAW double counting   =      1338.73365349    -1405.83620209
  entropy T*S    EENTRO =        -0.00000000
  eigenvalues    EBANDS =      -565.51274244
  atomic energy  EATOM  =      2397.80759001
  Solvation  Ediel_sol  =         0.00000000
  ---------------------------------------------------
  free energy    TOTEN  =       -53.32989300 eV

  energy without entropy =      -53.32989300  energy(sigma->0) =      -53.32989300


--------------------------------------------------------------------------------------------------------




--------------------------------------- Iteration      1(   4)  ---------------------------------------


     EDDAV:  cpu time    1.0381: real time    1.0463
       DOS:  cpu time    0.0034: real time    0.0035
    --------------------------------------------
      LOOP:  cpu time    1.0416: real time    1.0498

 eigenvalue-minimisations  :  4480
 total energy-change (2. order) :-0.3088218E+01  (-0.3083919E+01)
 number of electron      44.0000000 magnetization 
 augmentation part       44.0000000 magnetization 

 Free energy of the ion-electron system (eV)
  ---------------------------------------------------
  alpha Z        PSCENC =       314.56504561
  Ewald energy   TEWEN  =     -2096.28676081
  -Hartree energ DENC   =      -176.90338391
  -exchange      EXHF   =         0.00000000
  -V(xc)+E(xc)   XCENC  =       140.10290714
  PAW double counting   =      1338.73365349    -1405.83620209
  entropy T*S    EENTRO =        -0.00000000
  eigenvalues    EBANDS =      -568.60096025
  atomic energy  EATOM  =      2397.80759001
  Solvation  Ediel_sol  =         0.00000000
  ---------------------------------------------------
  free energy    TOTEN  =       -56.41811081 eV

  energy without entropy =      -56.41811081  energy(sigma->0) =      -56.41811081


--------------------------------------------------------------------------------------------------------




--------------------------------------- Iteration      1(   5)  ---------------------------------------


     EDDAV:  cpu time    0.8937: real time    0.9012
       DOS:  cpu time    0.0034: real time    0.0034
    CHARGE:  cpu time    0.0243: real time    0.0245
    MIXING:  cpu time    0.0008: real time    0.0010
    --------------------------------------------
      LOOP:  cpu time    0.9222: real time    0.9301

 eigenvalue-minimisations  :  3756
 total energy-change (2. order) :-0.6649873E-01  (-0.6647529E-01)
 number of electron      44.0000032 magnetization 
 augmentation part        0.4819467 magnetization 

 Broyden mixing:
  rms(total) = 0.31043E+01    rms(broyden)= 0.31042E+01
  rms(prec ) = 0.35984E+01
  weight for this iteration     100.00

 Free energy of the ion-electron system (eV)
  ---------------------------------------------------
  alpha Z        PSCENC =       314.56504561
  Ewald energy   TEWEN  =     -2096.28676081
  -Hartree energ DENC   =      -176.90338391
  -exchange      EXHF   =         0.00000000
  -V(xc)+E(xc)   XCENC  =       140.10290714
  PAW double counting   =      1338.73365349    -1405.83620209
  entropy T*S    EENTRO =        -0.00000000
  eigenvalues    EBANDS =      -568.66745897
  atomic energy  EATOM  =      2397.80759001
  Solvation  Ediel_sol  =         0.00000000
  ---------------------------------------------------
  free energy    TOTEN  =       -56.48460954 eV

  energy without entropy =      -56.48460954  energy(sigma->0) =      -56.48460954


--------------------------------------------------------------------------------------------------------




--------------------------------------- Iteration      1(   6)  ---------------------------------------


    POTLOK:  cpu time    0.0080: real time    0.0085
    SETDIJ:  cpu time    0.0034: real time    0.0034
    EDDIAG:  cpu time    0.1296: real time    0.1305
  RMM-DIIS:  cpu time    0.6483: real time    0.6535
    ORTHCH:  cpu time    0.0153: real time    0.0153
       DOS:  cpu time    0.0032: real time    0.0032
    CHARGE:  cpu time    0.0238: real time    0.0239
    MIXING:  cpu time    0.0006: real time    0.0007
    --------------------------------------------
      LOOP:  cpu time    0.8321: real time    0.8390

 eigenvalue-minimisations  :  4407
 total energy-change (2. order) : 0.3028411E+01  (-0.3182229E+00)
 number of electron      44.0000032 magnetization 
 augmentation part        0.3880904 magnetization 

 Broyden mixing:
  rms(total) = 0.17753E+01    rms(broyden)= 0.17753E+01
  rms(prec ) = 0.20121E+01
  weight for this iteration     100.00

 eigenvalues of (default mixing * dielectric matrix)
  average eigenvalue GAMMA=   2.3290
  2.3290

 Free energy of the ion-electron system (eV)
  ---------------------------------------------------
  alpha Z        PSCENC =       314.56504561
  Ewald energy   TEWEN  =     -2096.28676081
  -Hartree energ DENC   =      -178.15953586
  -exchange      EXHF   =         0.00000000
  -V(xc)+E(xc)   XCENC  =       141.08555907
  PAW double counting   =      3153.91092480    -3223.11053239
  entropy T*S    EENTRO =        -0.00000000
  eigenvalues    EBANDS =      -563.26848855
  atomic energy  EATOM  =      2397.80759001
  Solvation  Ediel_sol  =         0.00000000
  ---------------------------------------------------
  free energy    TOTEN  =       -53.45619811 eV

  energy without entropy =      -53.45619811  energy(sigma->0) =      -53.45619811


--------------------------------------------------------------------------------------------------------




--------------------------------------- Iteration      1(   7)  ---------------------------------------


    POTLOK:  cpu time    0.0075: real time    0.0077
    SETDIJ:  cpu time    0.0032: real time    0.0032
    EDDIAG:  cpu time    0.1329: real time    0.1338
  RMM-DIIS:  cpu time    0.6773: real time    0.6827
    ORTHCH:  cpu time    0.0153: real time    0.0156
       DOS:  cpu time    0.0031: real time    0.0032
    CHARGE:  cpu time    0.0239: real time    0.0240
    MIXING:  cpu time    0.0006: real time    0.0006
    --------------------------------------------
      LOOP:  cpu time    0.8638: real time    0.8706

 eigenvalue-minimisations  :  4644
 total energy-change (2. order) : 0.1069084E+01  (-0.4145163E+00)
 number of electron      44.0000032 magnetization 
 augmentation part        0.2495773 magnetization 

 Broyden mixing:
  rms(total) = 0.10676E+00    rms(broyden)= 0.10674E+00
  rms(prec ) = 0.18540E+00
  weight for this iteration     100.00

 eigenvalues of (default mixing * dielectric matrix)
  average eigenvalue GAMMA=   2.2080
  2.2080  2.2080

 Free energy of the ion-electron system (eV)
  ---------------------------------------------------
  alpha Z        PSCENC =       314.56504561
  Ewald energy   TEWEN  =     -2096.28676081
  -Hartree energ DENC   =      -185.19053369
  -exchange      EXHF   =         0.00000000
  -V(xc)+E(xc)   XCENC  =       142.90398335
  PAW double counting   =      7133.74222441    -7205.09129031
  entropy T*S    EENTRO =        -0.00000000
  eigenvalues    EBANDS =      -554.83737267
  atomic energy  EATOM  =      2397.80759001
  Solvation  Ediel_sol  =         0.00000000
  ---------------------------------------------------
  free energy    TOTEN  =       -52.38711410 eV

  energy without entropy =      -52.38711410  energy(sigma->0) =      -52.38711410


--------------------------------------------------------------------------------------------------------




--------------------------------------- Iteration      1(   8)  ---------------------------------------


    POTLOK:  cpu time    0.0075: real time    0.0079
    SETDIJ:  cpu time    0.0032: real time    0.0033
    EDDIAG:  cpu time    0.1300: real time    0.1308
  RMM-DIIS:  cpu time    0.7051: real time    0.7103
    ORTHCH:  cpu time    0.0150: real time    0.0151
       DOS:  cpu time    0.0032: real time    0.0032
    CHARGE:  cpu time    0.0235: real time    0.0236
    MIXING:  cpu time    0.0006: real time    0.0006
    --------------------------------------------
      LOOP:  cpu time    0.8881: real time    0.8947

 eigenvalue-minimisations  :  4885
 total energy-change (2. order) : 0.1109790E+00  (-0.1686413E-01)
 number of electron      44.0000032 magnetization 
 augmentation part        0.2297165 magnetization 

 Broyden mixing:
  rms(total) = 0.55465E-01    rms(broyden)= 0.55464E-01
  rms(prec ) = 0.66148E-01
  weight for this iteration     100.00

 eigenvalues of (default mixing * dielectric matrix)
  average eigenvalue GAMMA=   1.8383
  1.0851  2.4837  1.9461

 Free energy of the ion-electron system (eV)
  ---------------------------------------------------
  alpha Z        PSCENC =       314.56504561
  Ewald energy   TEWEN  =     -2096.28676081
  -Hartree energ DENC   =      -186.52859577
  -exchange      EXHF   =         0.00000000
  -V(xc)+E(xc)   XCENC  =       142.96465526
  PAW double counting   =      7356.16493603    -7427.08204849
  entropy T*S    EENTRO =        -0.00000000
  eigenvalues    EBANDS =      -553.88095694
  atomic energy  EATOM  =      2397.80759001
  Solvation  Ediel_sol  =         0.00000000
  ---------------------------------------------------
  free energy    TOTEN  =       -52.27613511 eV

  energy without entropy =      -52.27613511  energy(sigma->0) =      -52.27613511


--------------------------------------------------------------------------------------------------------




--------------------------------------- Iteration      1(   9)  ---------------------------------------


    POTLOK:  cpu time    0.0074: real time    0.0076
    SETDIJ:  cpu time    0.0031: real time    0.0031
    EDDIAG:  cpu time    0.1298: real time    0.1308
  RMM-DIIS:  cpu time    0.7941: real time    0.8000
    ORTHCH:  cpu time    0.0153: real time    0.0153
       DOS:  cpu time    0.0032: real time    0.0032
    CHARGE:  cpu time    0.0238: real time    0.0239
    MIXING:  cpu time    0.0005: real time    0.0005
    --------------------------------------------
      LOOP:  cpu time    0.9771: real time    0.9844

 eigenvalue-minimisations  :  5535
 total energy-change (2. order) : 0.3290704E-02  (-0.9927298E-03)
 number of electron      44.0000032 magnetization 
 augmentation part        0.2173354 magnetization 

 Broyden mixing:
  rms(total) = 0.11348E-01    rms(broyden)= 0.11347E-01
  rms(prec ) = 0.16027E-01
  weight for this iteration     100.00

 eigenvalues of (default mixing * dielectric matrix)
  average eigenvalue GAMMA=   1.9086
  1.0961  2.6621  2.1928  1.6834

 Free energy of the ion-electron system (eV)
  ---------------------------------------------------
  alpha Z        PSCENC =       314.56504561
  Ewald energy   TEWEN  =     -2096.28676081
  -Hartree energ DENC   =      -186.96680819
  -exchange      EXHF   =         0.00000000
  -V(xc)+E(xc)   XCENC  =       143.02825040
  PAW double counting   =      7521.31296303    -7592.26455616
  entropy T*S    EENTRO =        -0.00000000
  eigenvalues    EBANDS =      -553.46856829
  atomic energy  EATOM  =      2397.80759001
  Solvation  Ediel_sol  =         0.00000000
  ---------------------------------------------------
  free energy    TOTEN  =       -52.27284441 eV

  energy without entropy =      -52.27284441  energy(sigma->0) =      -52.27284441


--------------------------------------------------------------------------------------------------------




--------------------------------------- Iteration      1(  10)  ---------------------------------------


    POTLOK:  cpu time    0.0075: real time    0.0079
    SETDIJ:  cpu time    0.0031: real time    0.0031
    EDDIAG:  cpu time    0.1307: real time    0.1319
  RMM-DIIS:  cpu time    0.7935: real time    0.7994
    ORTHCH:  cpu time    0.0151: real time    0.0152
       DOS:  cpu time    0.0032: real time    0.0032
    CHARGE:  cpu time    0.0238: real time    0.0239
    MIXING:  cpu time    0.0006: real time    0.0006
    --------------------------------------------
      LOOP:  cpu time    0.9775: real time    0.9851

 eigenvalue-minimisations  :  5510
 total energy-change (2. order) :-0.1798276E-04  (-0.2634175E-03)
 number of electron      44.0000032 magnetization 
 augmentation part        0.2140625 magnetization 

 Broyden mixing:
  rms(total) = 0.28077E-02    rms(broyden)= 0.28075E-02
  rms(prec ) = 0.36763E-02
  weight for this iteration     100.00

 eigenvalues of (default mixing * dielectric matrix)
  average eigenvalue GAMMA=   1.7706
  1.0505  2.3816  2.2433  1.8000  1.3777

 Free energy of the ion-electron system (eV)
  ---------------------------------------------------
  alpha Z        PSCENC =       314.56504561
  Ewald energy   TEWEN  =     -2096.28676081
  -Hartree energ DENC   =      -187.18147257
  -exchange      EXHF   =         0.00000000
  -V(xc)+E(xc)   XCENC  =       143.03170868
  PAW double counting   =      7559.06567944    -7629.95881661
  entropy T*S    EENTRO =        -0.00000000
  eigenvalues    EBANDS =      -553.31583613
  atomic energy  EATOM  =      2397.80759001
  Solvation  Ediel_sol  =         0.00000000
  ---------------------------------------------------
  free energy    TOTEN  =       -52.27286239 eV

  energy without entropy =      -52.27286239  energy(sigma->0) =      -52.27286239


--------------------------------------------------------------------------------------------------------




--------------------------------------- Iteration      1(  11)  ---------------------------------------


    POTLOK:  cpu time    0.0076: real time    0.0078
    SETDIJ:  cpu time    0.0032: real time    0.0032
    EDDIAG:  cpu time    0.1311: real time    0.1323
  RMM-DIIS:  cpu time    0.8305: real time    0.8364
    ORTHCH:  cpu time    0.0149: real time    0.0150
       DOS:  cpu time    0.0031: real time    0.0032
    CHARGE:  cpu time    0.0235: real time    0.0235
    MIXING:  cpu time    0.0005: real time    0.0005
    --------------------------------------------
      LOOP:  cpu time    1.0143: real time    1.0220

 eigenvalue-minimisations  :  5729
 total energy-change (2. order) :-0.9768319E-04  (-0.1253479E-03)
 number of electron      44.0000032 magnetization 
 augmentation part        0.2127223 magnetization 

 Broyden mixing:
  rms(total) = 0.21801E-02    rms(broyden)= 0.21800E-02
  rms(prec ) = 0.29003E-02
  weight for this iteration     100.00

 eigenvalues of (default mixing * dielectric matrix)
  average eigenvalue GAMMA=   1.7608
  2.6554  2.6554  1.7264  1.7264  0.9007  0.9007

 Free energy of the ion-electron system (eV)
  ---------------------------------------------------
  alpha Z        PSCENC =       314.56504561
  Ewald energy   TEWEN  =     -2096.28676081
  -Hartree energ DENC   =      -187.13348650
  -exchange      EXHF   =         0.00000000
  -V(xc)+E(xc)   XCENC  =       143.02566012
  PAW double counting   =      7550.37686247    -7621.26192938
  entropy T*S    EENTRO =        -0.00000000
  eigenvalues    EBANDS =      -553.36594159
  atomic energy  EATOM  =      2397.80759001
  Solvation  Ediel_sol  =         0.00000000
  ---------------------------------------------------
  free energy    TOTEN  =       -52.27296007 eV

  energy without entropy =      -52.27296007  energy(sigma->0) =      -52.27296007


--------------------------------------------------------------------------------------------------------




--------------------------------------- Iteration      1(  12)  ---------------------------------------


    POTLOK:  cpu time    0.0072: real time    0.0074
    SETDIJ:  cpu time    0.0032: real time    0.0032
    EDDIAG:  cpu time    0.1308: real time    0.1319
  RMM-DIIS:  cpu time    0.7767: real time    0.7819
    ORTHCH:  cpu time    0.0152: real time    0.0152
       DOS:  cpu time    0.0032: real time    0.0032
    CHARGE:  cpu time    0.0236: real time    0.0236
    MIXING:  cpu time    0.0005: real time    0.0005
    --------------------------------------------
      LOOP:  cpu time    0.9603: real time    0.9670

 eigenvalue-minimisations  :  5362
 total energy-change (2. order) :-0.5007905E-04  (-0.5589668E-04)
 number of electron      44.0000032 magnetization 
 augmentation part        0.2119019 magnetization 

 Broyden mixing:
  rms(total) = 0.12705E-02    rms(broyden)= 0.12705E-02
  rms(prec ) = 0.15313E-02
  weight for this iteration     100.00

 eigenvalues of (default mixing * dielectric matrix)
  average eigenvalue GAMMA=   1.8730
  3.5408  2.6078  2.2010  1.5809  1.3041  0.9881  0.8880

 Free energy of the ion-electron system (eV)
  ---------------------------------------------------
  alpha Z        PSCENC =       314.56504561
  Ewald energy   TEWEN  =     -2096.28676081
  -Hartree energ DENC   =      -187.14516082
  -exchange      EXHF   =         0.00000000
  -V(xc)+E(xc)   XCENC  =       143.02373455
  PAW double counting   =      7551.99199488    -7622.86206043
  entropy T*S    EENTRO =        -0.00000000
  eigenvalues    EBANDS =      -553.36739314
  atomic energy  EATOM  =      2397.80759001
  Solvation  Ediel_sol  =         0.00000000
  ---------------------------------------------------
  free energy    TOTEN  =       -52.27301015 eV

  energy without entropy =      -52.27301015  energy(sigma->0) =      -52.27301015


--------------------------------------------------------------------------------------------------------




--------------------------------------- Iteration      1(  13)  ---------------------------------------


    POTLOK:  cpu time    0.0073: real time    0.0076
    SETDIJ:  cpu time    0.0031: real time    0.0031
    EDDIAG:  cpu time    0.1317: real time    0.1330
  RMM-DIIS:  cpu time    0.6910: real time    0.6957
    ORTHCH:  cpu time    0.0148: real time    0.0148
       DOS:  cpu time    0.0031: real time    0.0032
    CHARGE:  cpu time    0.0232: real time    0.0234
    MIXING:  cpu time    0.0006: real time    0.0006
    --------------------------------------------
      LOOP:  cpu time    0.8749: real time    0.8814

 eigenvalue-minimisations  :  4839
 total energy-change (2. order) :-0.2957041E-04  (-0.3313101E-04)
 number of electron      44.0000032 magnetization 
 augmentation part        0.2113562 magnetization 

 Broyden mixing:
  rms(total) = 0.37392E-03    rms(broyden)= 0.37387E-03
  rms(prec ) = 0.64872E-03
  weight for this iteration     100.00

 eigenvalues of (default mixing * dielectric matrix)
  average eigenvalue GAMMA=   1.8064
  3.0284  2.5692  2.1890  2.1890  1.5558  1.1795  0.9203  0.8196

 Free energy of the ion-electron system (eV)
  ---------------------------------------------------
  alpha Z        PSCENC =       314.56504561
  Ewald energy   TEWEN  =     -2096.28676081
  -Hartree energ DENC   =      -187.14575953
  -exchange      EXHF   =         0.00000000
  -V(xc)+E(xc)   XCENC  =       143.02338160
  PAW double counting   =      7555.33523539    -7626.19975078
  entropy T*S    EENTRO =        -0.00000000
  eigenvalues    EBANDS =      -553.37202122
  atomic energy  EATOM  =      2397.80759001
  Solvation  Ediel_sol  =         0.00000000
  ---------------------------------------------------
  free energy    TOTEN  =       -52.27303972 eV

  energy without entropy =      -52.27303972  energy(sigma->0) =      -52.27303972


--------------------------------------------------------------------------------------------------------




--------------------------------------- Iteration      1(  14)  ---------------------------------------


    POTLOK:  cpu time    0.0072: real time    0.0074
    SETDIJ:  cpu time    0.0030: real time    0.0030
    EDDIAG:  cpu time    0.1308: real time    0.1315
  RMM-DIIS:  cpu time    0.6464: real time    0.6513
    ORTHCH:  cpu time    0.0152: real time    0.0152
       DOS:  cpu time    0.0032: real time    0.0032
    CHARGE:  cpu time    0.0235: real time    0.0236
    MIXING:  cpu time    0.0007: real time    0.0007
    --------------------------------------------
      LOOP:  cpu time    0.8298: real time    0.8358

 eigenvalue-minimisations  :  4298
 total energy-change (2. order) :-0.1645409E-04  (-0.1784066E-04)
 number of electron      44.0000032 magnetization 
 augmentation part        0.2110397 magnetization 

 Broyden mixing:
  rms(total) = 0.33134E-03    rms(broyden)= 0.33133E-03
  rms(prec ) = 0.43581E-03
  weight for this iteration     100.00

 eigenvalues of (default mixing * dielectric matrix)
  average eigenvalue GAMMA=   1.8386
  4.1401  2.5819  2.2866  2.2866  1.5913  1.1709  0.8498  0.8498  0.7903

 Free energy of the ion-electron system (eV)
  ---------------------------------------------------
  alpha Z        PSCENC =       314.56504561
  Ewald energy   TEWEN  =     -2096.28676081
  -Hartree energ DENC   =      -187.15249468
  -exchange      EXHF   =         0.00000000
  -V(xc)+E(xc)   XCENC  =       143.02369794
  PAW double counting   =      7555.89733649    -7626.76135223
  entropy T*S    EENTRO =        -0.00000000
  eigenvalues    EBANDS =      -553.36611850
  atomic energy  EATOM  =      2397.80759001
  Solvation  Ediel_sol  =         0.00000000
  ---------------------------------------------------
  free energy    TOTEN  =       -52.27305618 eV

  energy without entropy =      -52.27305618  energy(sigma->0) =      -52.27305618


--------------------------------------------------------------------------------------------------------




--------------------------------------- Iteration      1(  15)  ---------------------------------------


    POTLOK:  cpu time    0.0074: real time    0.0076
    SETDIJ:  cpu time    0.0033: real time    0.0034
    EDDIAG:  cpu time    0.1330: real time    0.1337
  RMM-DIIS:  cpu time    0.6037: real time    0.6082
    ORTHCH:  cpu time    0.0150: real time    0.0151
       DOS:  cpu time    0.0031: real time    0.0031
    CHARGE:  cpu time    0.0233: real time    0.0234
    MIXING:  cpu time    0.0007: real time    0.0007
    --------------------------------------------
      LOOP:  cpu time    0.7895: real time    0.7952

 eigenvalue-minimisations  :  3966
 total energy-change (2. order) :-0.8742164E-05  (-0.1050486E-04)
 number of electron      44.0000032 magnetization 
 augmentation part        0.2108979 magnetization 

 Broyden mixing:
  rms(total) = 0.10984E-03    rms(broyden)= 0.10983E-03
  rms(prec ) = 0.17327E-03
  weight for this iteration     100.00

 eigenvalues of (default mixing * dielectric matrix)
  average eigenvalue GAMMA=   1.7884
  3.5357  2.7299  2.5438  1.8814  1.7325  1.7325  1.0535  0.9553  0.9553  0.7643

 Free energy of the ion-electron system (eV)
  ---------------------------------------------------
  alpha Z        PSCENC =       314.56504561
  Ewald energy   TEWEN  =     -2096.28676081
  -Hartree energ DENC   =      -187.15437475
  -exchange      EXHF   =         0.00000000
  -V(xc)+E(xc)   XCENC  =       143.02332119
  PAW double counting   =      7555.96145352    -7626.82300378
  entropy T*S    EENTRO =        -0.00000000
  eigenvalues    EBANDS =      -553.36633591
  atomic energy  EATOM  =      2397.80759001
  Solvation  Ediel_sol  =         0.00000000
  ---------------------------------------------------
  free energy    TOTEN  =       -52.27306492 eV

  energy without entropy =      -52.27306492  energy(sigma->0) =      -52.27306492


--------------------------------------------------------------------------------------------------------




--------------------------------------- Iteration      1(  16)  ---------------------------------------


    POTLOK:  cpu time    0.0074: real time    0.0076
    SETDIJ:  cpu time    0.0031: real time    0.0031
    EDDIAG:  cpu time    0.1302: real time    0.1310
  RMM-DIIS:  cpu time    0.5415: real time    0.5462
    ORTHCH:  cpu time    0.0150: real time    0.0151
       DOS:  cpu time    0.0031: real time    0.0032
    CHARGE:  cpu time    0.0233: real time    0.0234
    MIXING:  cpu time    0.0006: real time    0.0006
    --------------------------------------------
      LOOP:  cpu time    0.7243: real time    0.7303

 eigenvalue-minimisations  :  3602
 total energy-change (2. order) :-0.4796569E-05  (-0.6328888E-05)
 number of electron      44.0000032 magnetization 
 augmentation part        0.2108420 magnetization 

 Broyden mixing:
  rms(total) = 0.11702E-03    rms(broyden)= 0.11702E-03
  rms(prec ) = 0.15024E-03
  weight for this iteration     100.00

 eigenvalues of (default mixing * dielectric matrix)
  average eigenvalue GAMMA=   1.7099
  3.1514  3.1514  2.6408  2.0270  1.7896  1.7896  1.0278  1.0079  1.0079  0.7712
  0.4439

 Free energy of the ion-electron system (eV)
  ---------------------------------------------------
  alpha Z        PSCENC =       314.56504561
  Ewald energy   TEWEN  =     -2096.28676081
  -Hartree energ DENC   =      -187.15611043
  -exchange      EXHF   =         0.00000000
  -V(xc)+E(xc)   XCENC  =       143.02342849
  PAW double counting   =      7556.08406283    -7626.94548420
  entropy T*S    EENTRO =        -0.00000000
  eigenvalues    EBANDS =      -553.36484120
  atomic energy  EATOM  =      2397.80759001
  Solvation  Ediel_sol  =         0.00000000
  ---------------------------------------------------
  free energy    TOTEN  =       -52.27306971 eV

  energy without entropy =      -52.27306971  energy(sigma->0) =      -52.27306971


--------------------------------------------------------------------------------------------------------




--------------------------------------- Iteration      1(  17)  ---------------------------------------


    POTLOK:  cpu time    0.0071: real time    0.0076
    SETDIJ:  cpu time    0.0032: real time    0.0032
    EDDIAG:  cpu time    0.1301: real time    0.1308
  RMM-DIIS:  cpu time    0.5115: real time    0.5150
    ORTHCH:  cpu time    0.0150: real time    0.0151
       DOS:  cpu time    0.0032: real time    0.0032
    CHARGE:  cpu time    0.0238: real time    0.0239
    MIXING:  cpu time    0.0007: real time    0.0007
    --------------------------------------------
      LOOP:  cpu time    0.6945: real time    0.6994

 eigenvalue-minimisations  :  3321
 total energy-change (2. order) :-0.1162973E-05  (-0.2804294E-05)
 number of electron      44.0000032 magnetization 
 augmentation part        0.2108193 magnetization 

 Broyden mixing:
  rms(total) = 0.78148E-04    rms(broyden)= 0.78148E-04
  rms(prec ) = 0.10219E-03
  weight for this iteration     100.00

 eigenvalues of (default mixing * dielectric matrix)
  average eigenvalue GAMMA=   1.7221
  4.1291  2.6199  2.6199  2.0026  2.0026  1.6032  1.3163  1.0071  1.1876  0.7684
  0.7684  0.6395

 Free energy of the ion-electron system (eV)
  ---------------------------------------------------
  alpha Z        PSCENC =       314.56504561
  Ewald energy   TEWEN  =     -2096.28676081
  -Hartree energ DENC   =      -187.15696244
  -exchange      EXHF   =         0.00000000
  -V(xc)+E(xc)   XCENC  =       143.02344223
  PAW double counting   =      7556.18249922    -7627.04362157
  entropy T*S    EENTRO =        -0.00000000
  eigenvalues    EBANDS =      -553.36430313
  atomic energy  EATOM  =      2397.80759001
  Solvation  Ediel_sol  =         0.00000000
  ---------------------------------------------------
  free energy    TOTEN  =       -52.27307088 eV

  energy without entropy =      -52.27307088  energy(sigma->0) =      -52.27307088


--------------------------------------------------------------------------------------------------------




--------------------------------------- Iteration      1(  18)  ---------------------------------------


    POTLOK:  cpu time    0.0073: real time    0.0076
    SETDIJ:  cpu time    0.0031: real time    0.0032
    EDDIAG:  cpu time    0.1312: real time    0.1323
  RMM-DIIS:  cpu time    0.4909: real time    0.4943
    ORTHCH:  cpu time    0.0149: real time    0.0150
       DOS:  cpu time    0.0031: real time    0.0031
    CHARGE:  cpu time    0.0234: real time    0.0235
    MIXING:  cpu time    0.0007: real time    0.0007
    --------------------------------------------
      LOOP:  cpu time    0.6748: real time    0.6797

 eigenvalue-minimisations  :  3213
 total energy-change (2. order) :-0.9258074E-06  (-0.2878371E-05)
 number of electron      44.0000032 magnetization 
 augmentation part        0.2108149 magnetization 

 Broyden mixing:
  rms(total) = 0.44848E-04    rms(broyden)= 0.44848E-04
  rms(prec ) = 0.51257E-04
  weight for this iteration     100.00

 eigenvalues of (default mixing * dielectric matrix)
  average eigenvalue GAMMA=   1.6885
  3.0018  3.0018  2.7930  2.3389  2.3389  1.7261  1.7261  1.0373  1.0373  0.8711
  0.8711  0.7902  0.4173

 Free energy of the ion-electron system (eV)
  ---------------------------------------------------
  alpha Z        PSCENC =       314.56504561
  Ewald energy   TEWEN  =     -2096.28676081
  -Hartree energ DENC   =      -187.15745589
  -exchange      EXHF   =         0.00000000
  -V(xc)+E(xc)   XCENC  =       143.02338480
  PAW double counting   =      7556.23230074    -7627.09298682
  entropy T*S    EENTRO =        -0.00000000
  eigenvalues    EBANDS =      -553.36418943
  atomic energy  EATOM  =      2397.80759001
  Solvation  Ediel_sol  =         0.00000000
  ---------------------------------------------------
  free energy    TOTEN  =       -52.27307180 eV

  energy without entropy =      -52.27307180  energy(sigma->0) =      -52.27307180


--------------------------------------------------------------------------------------------------------




--------------------------------------- Iteration      1(  19)  ---------------------------------------


    POTLOK:  cpu time    0.0074: real time    0.0076
    SETDIJ:  cpu time    0.0031: real time    0.0032
    EDDIAG:  cpu time    0.1309: real time    0.1316
  RMM-DIIS:  cpu time    0.4706: real time    0.4744
    ORTHCH:  cpu time    0.0149: real time    0.0150
       DOS:  cpu time    0.0032: real time    0.0032
    CHARGE:  cpu time    0.0233: real time    0.0234
    MIXING:  cpu time    0.0007: real time    0.0007
    --------------------------------------------
      LOOP:  cpu time    0.6541: real time    0.6589

 eigenvalue-minimisations  :  3077
 total energy-change (2. order) :-0.3803616E-06  (-0.2287966E-05)
 number of electron      44.0000032 magnetization 
 augmentation part        0.2108136 magnetization 

 Broyden mixing:
  rms(total) = 0.67176E-04    rms(broyden)= 0.67176E-04
  rms(prec ) = 0.77278E-04
  weight for this iteration     100.00

 eigenvalues of (default mixing * dielectric matrix)
  average eigenvalue GAMMA=   1.7020
  4.2318  2.6446  2.6446  2.5109  2.5109  1.7402  1.7402  1.0473  1.0473  0.8885
  0.8885  0.7654  0.5842  0.5842

 Free energy of the ion-electron system (eV)
  ---------------------------------------------------
  alpha Z        PSCENC =       314.56504561
  Ewald energy   TEWEN  =     -2096.28676081
  -Hartree energ DENC   =      -187.15743366
  -exchange      EXHF   =         0.00000000
  -V(xc)+E(xc)   XCENC  =       143.02341458
  PAW double counting   =      7556.24681660    -7627.10767323
  entropy T*S    EENTRO =        -0.00000000
  eigenvalues    EBANDS =      -553.36407128
  atomic energy  EATOM  =      2397.80759001
  Solvation  Ediel_sol  =         0.00000000
  ---------------------------------------------------
  free energy    TOTEN  =       -52.27307218 eV

  energy without entropy =      -52.27307218  energy(sigma->0) =      -52.27307218


--------------------------------------------------------------------------------------------------------




--------------------------------------- Iteration      1(  20)  ---------------------------------------


    POTLOK:  cpu time    0.0071: real time    0.0073
    SETDIJ:  cpu time    0.0032: real time    0.0032
    EDDIAG:  cpu time    0.1297: real time    0.1304
  RMM-DIIS:  cpu time    0.4640: real time    0.4673
    ORTHCH:  cpu time    0.0159: real time    0.0160
       DOS:  cpu time    0.0032: real time    0.0032
    CHARGE:  cpu time    0.0235: real time    0.0236
    MIXING:  cpu time    0.0008: real time    0.0008
    --------------------------------------------
      LOOP:  cpu time    0.6474: real time    0.6517

 eigenvalue-minimisations  :  3008
 total energy-change (2. order) :-0.6343271E-06  (-0.2584225E-05)
 number of electron      44.0000032 magnetization 
 augmentation part        0.2108131 magnetization 

 Broyden mixing:
  rms(total) = 0.31214E-04    rms(broyden)= 0.31214E-04
  rms(prec ) = 0.34008E-04
  weight for this iteration     100.00

 eigenvalues of (default mixing * dielectric matrix)
  average eigenvalue GAMMA=   1.6320
  3.9167  2.6698  2.6698  2.4154  2.4154  1.7660  1.7660  0.8957  0.8957  1.0324
  1.0324  0.9090  0.9090  0.7364  0.4503

 Free energy of the ion-electron system (eV)
  ---------------------------------------------------
  alpha Z        PSCENC =       314.56504561
  Ewald energy   TEWEN  =     -2096.28676081
  -Hartree energ DENC   =      -187.15789141
  -exchange      EXHF   =         0.00000000
  -V(xc)+E(xc)   XCENC  =       143.02337470
  PAW double counting   =      7556.29332407    -7627.15385435
  entropy T*S    EENTRO =        -0.00000000
  eigenvalues    EBANDS =      -553.36390064
  atomic energy  EATOM  =      2397.80759001
  Solvation  Ediel_sol  =         0.00000000
  ---------------------------------------------------
  free energy    TOTEN  =       -52.27307282 eV

  energy without entropy =      -52.27307282  energy(sigma->0) =      -52.27307282


--------------------------------------------------------------------------------------------------------




--------------------------------------- Iteration      1(  21)  ---------------------------------------


    POTLOK:  cpu time    0.0074: real time    0.0076
    SETDIJ:  cpu time    0.0030: real time    0.0030
    EDDIAG:  cpu time    0.1337: real time    0.1346
  RMM-DIIS:  cpu time    0.4655: real time    0.4690
    ORTHCH:  cpu time    0.0150: real time    0.0150
       DOS:  cpu time    0.0031: real time    0.0031
    CHARGE:  cpu time    0.0237: real time    0.0238
    MIXING:  cpu time    0.0008: real time    0.0008
    --------------------------------------------
      LOOP:  cpu time    0.6522: real time    0.6570

 eigenvalue-minimisations  :  2988
 total energy-change (2. order) :-0.5921202E-06  (-0.2549291E-05)
 number of electron      44.0000032 magnetization 
 augmentation part        0.2108052 magnetization 

 Broyden mixing:
  rms(total) = 0.49353E-04    rms(broyden)= 0.49353E-04
  rms(prec ) = 0.50656E-04
[...]
     31      12.8717      0.00000
     32      13.4586      0.00000
     33      13.9595      0.00000
     34      14.8325      0.00000
     35      14.9375      0.00000
     36      15.7677      0.00000

 k-point    38 :      -0.2500   -0.4167    0.3750
  band No.  band energies     occupation 
      1     -92.3206      2.00000
      2     -92.3205      2.00000
      3     -21.2452      2.00000
      4     -20.9987      2.00000
      5     -10.3611      2.00000
      6     -10.1396      2.00000
      7      -9.1285      2.00000
      8      -8.7324      2.00000
      9      -7.3323      2.00000
     10      -6.8362      2.00000
     11      -3.2028      2.00000
     12      -2.7517      2.00000
     13      -2.2825      2.00000
     14      -1.6678      2.00000
     15      -0.9564      2.00000
     16      -0.3551      2.00000
     17       0.0855      2.00000
     18       1.6409      2.00000
     19       2.2777      2.00000
     20       3.0242      2.00000
     21       3.4258      2.00000
     22       3.8265      2.00000
     23       7.3612      0.00000
     24       9.1038      0.00000
     25      10.0727      0.00000
     26      11.0518      0.00000
     27      11.2913      0.00000
     28      11.5567      0.00000
     29      11.9277      0.00000
     30      12.9101      0.00000
     31      13.5260      0.00000
     32      13.9858      0.00000
     33      15.3314      0.00000
     34      15.5525      0.00000
     35      16.0411      0.00000
     36      16.3860      0.00000

 k-point    39 :      -0.0833   -0.4167    0.3750
  band No.  band energies     occupation 
      1     -92.3205      2.00000
      2     -92.3205      2.00000
      3     -21.3447      2.00000
      4     -21.0450      2.00000
      5     -10.7004      2.00000
      6     -10.4168      2.00000
      7      -8.0100      2.00000
      8      -7.3506      2.00000
      9      -6.8252      2.00000
     10      -6.3904      2.00000
     11      -4.8745      2.00000
     12      -4.3726      2.00000
     13      -2.0804      2.00000
     14      -0.9628      2.00000
     15      -0.5126      2.00000
     16      -0.1737      2.00000
     17       0.3304      2.00000
     18       1.3789      2.00000
     19       1.7096      2.00000
     20       2.4284      2.00000
     21       3.0624      2.00000
     22       3.5070      2.00000
     23       7.1311      0.00000
     24       8.0447      0.00000
     25       9.8600      0.00000
     26      10.1522      0.00000
     27      10.8362      0.00000
     28      11.0483      0.00000
     29      11.8853      0.00000
     30      13.2568      0.00000
     31      13.8651      0.00000
     32      14.0300      0.00000
     33      14.7667      0.00000
     34      15.7214      0.00000
     35      16.1467      0.00000
     36      17.0013      0.00000

 k-point    40 :      -0.2500   -0.2500    0.3750
  band No.  band energies     occupation 
      1     -92.3205      2.00000
      2     -92.3205      2.00000
      3     -21.3781      2.00000
      4     -21.0155      2.00000
      5     -10.3227      2.00000
      6      -9.5918      2.00000
      7      -8.8972      2.00000
      8      -8.7194      2.00000
      9      -7.2218      2.00000
     10      -6.3046      2.00000
     11      -3.2986      2.00000
     12      -2.7335      2.00000
     13      -2.7061      2.00000
     14      -2.0780      2.00000
     15      -0.7499      2.00000
     16      -0.6284      2.00000
     17      -0.0462      2.00000
     18       1.9930      2.00000
     19       2.0526      2.00000
     20       2.6907      2.00000
     21       3.4477      2.00000
     22       3.5445      2.00000
     23       7.0342      0.00000
     24       8.1771      0.00000
     25       8.7739      0.00000
     26       9.8554      0.00000
     27      10.3866      0.00000
     28      12.1388      0.00000
     29      12.6166      0.00000
     30      13.3144      0.00000
     31      13.6297      0.00000
     32      14.6929      0.00000
     33      15.0720      0.00000
     34      15.1621      0.00000
     35      15.5047      0.00000
     36      15.9221      0.00000

 k-point    41 :      -0.0833   -0.2500    0.3750
  band No.  band energies     occupation 
      1     -92.3205      2.00000
      2     -92.3205      2.00000
      3     -21.4621      2.00000
      4     -21.0807      2.00000
      5     -10.4218      2.00000
      6      -9.6424      2.00000
      7      -8.0251      2.00000
      8      -7.5934      2.00000
      9      -6.9542      2.00000
     10      -6.1871      2.00000
     11      -4.5197      2.00000
     12      -4.3133      2.00000
     13      -2.4237      2.00000
     14      -1.6296      2.00000
     15      -1.0356      2.00000
     16      -0.0423      2.00000
     17       0.5511      2.00000
     18       1.5305      2.00000
     19       1.7662      2.00000
     20       2.6523      2.00000
     21       2.9423      2.00000
     22       3.3139      2.00000
     23       7.3008      0.00000
     24       7.5743      0.00000
     25       8.6165      0.00000
     26       9.4959      0.00000
     27      10.1594      0.00000
     28      12.3173      0.00000
     29      12.5616      0.00000
     30      12.6834      0.00000
     31      13.0239      0.00000
     32      13.6547      0.00000
     33      14.1390      0.00000
     34      15.1876      0.00000
     35      15.3844      0.00000
     36      16.9667      0.00000

 k-point    42 :      -0.0833   -0.0833    0.3750
  band No.  band energies     occupation 
      1     -92.3205      2.00000
      2     -92.3205      2.00000
      3     -21.5292      2.00000
      4     -21.1675      2.00000
      5     -10.1333      2.00000
      6      -8.8204      2.00000
      7      -7.5659      2.00000
      8      -7.3626      2.00000
      9      -7.0151      2.00000
     10      -6.5754      2.00000
     11      -4.7100      2.00000
     12      -4.0230      2.00000
     13      -3.9012      2.00000
     14      -2.1315      2.00000
     15      -0.9272      2.00000
     16       0.1751      2.00000
     17       1.2086      2.00000
     18       1.4889      2.00000
     19       1.5715      2.00000
     20       2.2903      2.00000
     21       3.3235      2.00000
     22       3.6414      2.00000
     23       7.5161      0.00000
     24       7.5334      0.00000
     25       8.9889      0.00000
     26       9.0779      0.00000
     27       9.1665      0.00000
     28      10.8328      0.00000
     29      11.5334      0.00000
     30      12.6800      0.00000
     31      12.7623      0.00000
     32      12.9872      0.00000
     33      13.3938      0.00000
     34      14.8058      0.00000
     35      14.8665      0.00000
     36      16.2902      0.00000


--------------------------------------------------------------------------------------------------------


 soft charge-density along one line, spin component           1
         0         1         2         3         4         5         6         7         8         9
 total charge-density along one line
 
 pseudopotential strength for first ion, spin component:           1
-97.534 -91.190   2.656   0.002   0.000   0.000   0.006   0.000
-91.190 -85.386   2.644   0.002   0.000   0.000   0.006   0.000
  2.656   2.644   2.779  -0.001  -0.000  -0.000  -0.002  -0.000
  0.002   0.002  -0.001  -0.692  -0.000   0.000  -1.630  -0.000
  0.000   0.000  -0.000  -0.000  -0.692  -0.000  -0.000  -1.630
  0.000   0.000  -0.000   0.000  -0.000  -0.692   0.000  -0.001
  0.006   0.006  -0.002  -1.630  -0.000   0.000  -3.578  -0.000
  0.000   0.000  -0.000  -0.000  -1.630  -0.001  -0.000  -3.578
  0.000   0.000  -0.000   0.000  -0.001  -1.630   0.000  -0.002
 total augmentation occupancy for first ion, spin component:           1
  2.114  -0.105  -0.242   0.028   0.000   0.000  -0.008   0.000   0.000
 -0.105   0.095   0.274  -0.026   0.000   0.000   0.007   0.000   0.000
 -0.242   0.274   1.434   0.019   0.000   0.000   0.002   0.000   0.000
  0.028  -0.026   0.019   3.449   0.000   0.000  -0.586   0.000   0.000
  0.000   0.000   0.000   0.000   3.494   0.071   0.000  -0.588  -0.015
  0.000   0.000   0.000   0.000   0.071   3.472   0.000  -0.015  -0.586
 -0.008   0.007   0.002  -0.586   0.000   0.000   0.103   0.000   0.000
  0.000   0.000   0.000   0.000  -0.588  -0.015   0.000   0.102   0.004
  0.000   0.000   0.000   0.000  -0.015  -0.586   0.000   0.004   0.103


------------------------ aborting loop because EDIFF is reached ----------------------------------------


 


 total charge     
 
# of ion       s       p       d       tot
------------------------------------------
    1        2.461   1.011   0.000   3.472
    2        2.461   1.011   0.000   3.472
    3        2.047   5.698   0.892   8.637
    4        2.047   5.698   0.892   8.637
    5        0.619   0.058   0.000   0.678
    6        0.619   0.058   0.000   0.678
    7        0.659   0.053   0.000   0.712
    8        0.659   0.053   0.000   0.712
    9        0.653   0.019   0.000   0.672
   10        0.644   0.019   0.000   0.663
   11        0.653   0.019   0.000   0.672
   12        0.644   0.019   0.000   0.663
   13        0.663   0.053   0.000   0.715
   14        0.663   0.053   0.000   0.715
   15        0.653   0.018   0.000   0.672
   16        0.653   0.018   0.000   0.672
   17        0.620   0.059   0.000   0.679
   18        0.620   0.059   0.000   0.679
   19        0.644   0.019   0.000   0.664
   20        0.644   0.019   0.000   0.664
--------------------------------------------------
tot         19.328  14.012   1.785  35.125
 
    CHARGE:  cpu time    0.0234: real time    0.0235
    FORLOC:  cpu time    0.0017: real time    0.0017
    FORNL :  cpu time    0.2861: real time    0.2880
    STRESS:  cpu time    0.0996: real time    0.1006
    FORCOR:  cpu time    0.0067: real time    0.0068
    FORHAR:  cpu time    0.0030: real time    0.0031
    MIXING:  cpu time    0.0018: real time    0.0018
    OFIELD:  cpu time    0.0000: real time    0.0001
 only isotrope contributions calculated
  for stress because ISIF=1 (only pressure is correct)

  FORCE on cell =-STRESS in cart. coord.  units (eV):
  Direction    XX          YY          ZZ          XY          YZ          ZX
  --------------------------------------------------------------------------------------
  Alpha Z   314.56505   314.56505   314.56505
  Ewald    -689.00251  -686.53420  -720.75308    -0.00000    -0.00000    25.33320
  Hartree    66.28763    66.79492    54.07434     0.00000     0.00000     7.11863
  E(xc)    -163.13762  -163.06607  -162.97566    -0.00000     0.00000     0.31854
  Local     172.19763   170.72089   216.30979     0.00000     0.00000   -26.09997
  n-local  -145.34194  -145.34194  -145.34194     0.00000     0.00000     0.00000
  augment   -44.93983   -44.93983   -44.93983     0.00000     0.00000     0.00000
  Kinetic   543.81777   542.56286   543.48823    -0.29492    -1.95869    -5.26827
  Fock        0.00000     0.00000     0.00000     0.00000     0.00000     0.00000
  -------------------------------------------------------------------------------------
  Total      54.44619    54.76169    54.42690     0.00000     0.00000     1.40214
  in kB     998.16216  1003.94620   997.80865     0.00000     0.00000    25.70543
  external pressure =       -0.03 kB  Pullay stress =     1000.00 kB


 VOLUME and BASIS-vectors are now :
 -----------------------------------------------------------------------------
  energy-cutoff  :      600.00
  volume of cell :       87.39
      direct lattice vectors                 reciprocal lattice vectors
     2.759481647  2.806165944  0.470044374     0.181195477  0.178179056 -0.000011901
     2.759481647 -2.806165944  0.470044374     0.181195477 -0.178179056 -0.000011901
    -0.000370638  0.000000000 -5.643011737     0.030185978  0.000000000 -0.177212318

  length of vectors
     3.963615519  3.963615519  5.643011749     0.254125121  0.254125121  0.179764843


 FORCES acting on ions
    electron-ion (+dipol)            ewald-force                    non-local-force                 convergence-correction
 -----------------------------------------------------------------------------------------------
   0.319E-12 -.506E+01 -.423E-12   0.711E-14 0.592E+01 0.355E-14   -.527E-17 -.862E+00 0.000E+00   -.104E-13 -.983E-05 -.127E-13
   0.783E-13 0.506E+01 -.504E-13   0.329E-13 -.592E+01 0.302E-13   -.385E-17 0.862E+00 0.694E-17   0.127E-13 0.983E-05 0.947E-14
   -.808E-11 -.123E+01 -.190E-11   -.338E-13 0.221E+01 -.142E-13   -.200E-17 -.982E+00 -.173E-17   -.687E-14 0.181E-04 0.873E-14
   -.850E-11 0.123E+01 0.756E-12   -.178E-13 -.221E+01 -.249E-13   -.140E-17 0.982E+00 0.867E-18   0.766E-14 -.181E-04 -.557E-14
   -.791E+01 -.989E+01 -.892E+01   0.103E+02 0.126E+02 0.116E+02   -.236E+01 -.269E+01 -.268E+01   0.110E-04 -.214E-05 -.127E-04
   0.791E+01 0.989E+01 0.892E+01   -.103E+02 -.126E+02 -.116E+02   0.236E+01 0.269E+01 0.268E+01   -.110E-04 0.214E-05 0.127E-04
   0.505E+01 0.401E+01 0.424E+01   -.723E+01 -.635E+01 -.690E+01   0.218E+01 0.234E+01 0.266E+01   -.203E-05 -.128E-04 -.159E-04
   -.505E+01 -.401E+01 -.424E+01   0.723E+01 0.635E+01 0.690E+01   -.218E+01 -.234E+01 -.266E+01   0.203E-05 0.128E-04 0.159E-04
   0.539E+01 0.957E+01 0.109E+02   -.609E+01 -.107E+02 -.121E+02   0.697E+00 0.112E+01 0.125E+01   0.261E-04 0.274E-04 0.329E-04
   0.110E+02 0.683E+01 -.953E+01   -.123E+02 -.768E+01 0.105E+02   0.128E+01 0.845E+00 -.993E+00   0.344E-04 0.281E-04 -.311E-04
   -.539E+01 -.957E+01 -.109E+02   0.609E+01 0.107E+02 0.121E+02   -.697E+00 -.112E+01 -.125E+01   -.261E-04 -.274E-04 -.329E-04
   -.110E+02 -.683E+01 0.953E+01   0.123E+02 0.768E+01 -.105E+02   -.128E+01 -.845E+00 0.993E+00   -.344E-04 -.281E-04 0.311E-04
   0.505E+01 -.401E+01 0.424E+01   -.723E+01 0.635E+01 -.690E+01   0.218E+01 -.234E+01 0.266E+01   -.203E-05 0.128E-04 -.159E-04
   -.505E+01 0.401E+01 -.424E+01   0.723E+01 -.635E+01 0.690E+01   -.218E+01 0.234E+01 -.266E+01   0.203E-05 -.128E-04 0.159E-04
   -.539E+01 0.957E+01 -.109E+02   0.609E+01 -.107E+02 0.121E+02   -.697E+00 0.112E+01 -.125E+01   -.261E-04 0.274E-04 -.329E-04
   0.539E+01 -.957E+01 0.109E+02   -.609E+01 0.107E+02 -.121E+02   0.697E+00 -.112E+01 0.125E+01   0.261E-04 -.274E-04 0.329E-04
   0.791E+01 -.989E+01 0.892E+01   -.103E+02 0.126E+02 -.116E+02   0.236E+01 -.269E+01 0.268E+01   -.110E-04 -.214E-05 0.127E-04
   -.791E+01 0.989E+01 -.892E+01   0.103E+02 -.126E+02 0.116E+02   -.236E+01 0.269E+01 -.268E+01   0.110E-04 0.214E-05 -.127E-04
   0.110E+02 -.683E+01 -.953E+01   -.123E+02 0.768E+01 0.105E+02   0.128E+01 -.845E+00 -.993E+00   0.344E-04 -.281E-04 -.311E-04
   -.110E+02 0.683E+01 0.953E+01   0.123E+02 -.768E+01 -.105E+02   -.128E+01 0.845E+00 0.993E+00   -.344E-04 0.281E-04 0.311E-04
 -----------------------------------------------------------------------------------------------
   -.153E-10 0.135E-10 -.175E-11   0.355E-14 -.178E-14 -.178E-14   -.444E-15 -.888E-15 0.222E-15   0.246E-14 0.449E-14 0.152E-15
 
 
 POSITION                                       TOTAL-FORCE (eV/Angst)
 -----------------------------------------------------------------------------------
      2.75920     -1.14833     -3.76221         0.000000     -0.000432     -0.000000
      2.75939      1.14833     -0.94071         0.000000      0.000432     -0.000000
      2.75939     -1.58611     -0.94071        -0.000000      0.001446     -0.000000
      2.75920      1.58611     -3.76221         0.000000     -0.001446     -0.000000
      1.35616     -0.05933     -0.04288         0.000036     -0.000050     -0.000664
      4.16243      0.05933     -4.66004        -0.000036      0.000050      0.000664
      0.94673     -0.51254     -0.53282        -0.000250      0.000385     -0.000715
      4.57186      0.51254     -4.17010         0.000250     -0.000385      0.000715
      2.16319      0.39633     -1.80970         0.000486      0.000429     -0.000565
      1.88330     -1.86842     -3.12601         0.000207     -0.000437     -0.000038
      3.35540     -0.39633     -2.89322        -0.000486     -0.000429      0.000565
      3.63529      1.86842     -1.57691        -0.000207      0.000437      0.000038
      0.94655      0.51254     -3.35433        -0.000250     -0.000385     -0.000715
      4.57204     -0.51254     -1.34859         0.000250      0.000385      0.000715
      3.35559      0.39633     -0.07172        -0.000486      0.000429      0.000565
      2.16301     -0.39633     -4.63121         0.000486     -0.000429     -0.000565
      4.16262     -0.05933     -1.83854        -0.000036     -0.000050      0.000664
      1.35598      0.05933     -2.86438         0.000036      0.000050     -0.000664
      1.88349      1.86842     -0.30451         0.000207      0.000437     -0.000038
      3.63511     -1.86842     -4.39841        -0.000207     -0.000437      0.000038
 -----------------------------------------------------------------------------------
    total drift:                               -0.000000      0.000000     -0.000000


--------------------------------------------------------------------------------------------------------



  FREE ENERGIE OF THE ION-ELECTRON SYSTEM (eV)
  ---------------------------------------------------
  free  energy   TOTEN  =       -52.27307590 eV

  energy  without entropy=      -52.27307590  energy(sigma->0) =      -52.27307590
  enthalpy is  TOTEN    =         2.27335860 eV   P V=       54.54643450



--------------------------------------------------------------------------------------------------------


    POTLOK:  cpu time    0.0102: real time    0.0104


--------------------------------------------------------------------------------------------------------


 writing wavefunctions
     LOOP+:  cpu time   33.5612: real time   33.9242
    4ORBIT:  cpu time    0.0000: real time    0.0000
 


 total charge     
 
# of ion       s       p       d       tot
------------------------------------------
    1        2.461   1.011   0.000   3.472
    2        2.461   1.011   0.000   3.472
    3        2.047   5.698   0.892   8.637
    4        2.047   5.698   0.892   8.637
    5        0.619   0.058   0.000   0.678
    6        0.619   0.058   0.000   0.678
    7        0.659   0.053   0.000   0.712
    8        0.659   0.053   0.000   0.712
    9        0.653   0.019   0.000   0.672
   10        0.644   0.019   0.000   0.663
   11        0.653   0.019   0.000   0.672
   12        0.644   0.019   0.000   0.663
   13        0.663   0.053   0.000   0.715
   14        0.663   0.053   0.000   0.715
   15        0.653   0.018   0.000   0.672
   16        0.653   0.018   0.000   0.672
   17        0.620   0.059   0.000   0.679
   18        0.620   0.059   0.000   0.679
   19        0.644   0.019   0.000   0.664
   20        0.644   0.019   0.000   0.664
--------------------------------------------------
tot         19.328  14.012   1.785  35.125
 

 total amount of memory used by VASP MPI-rank0    40003. kBytes
=======================================================================

   base      :      30000. kBytes
   nonlr-proj:       4289. kBytes
   fftplans  :        890. kBytes
   grid      :       1569. kBytes
   one-center:         62. kBytes
   wavefun   :       3193. kBytes
 
  
  
 General timing and accounting informations for this job:
 ========================================================
  
                  Total CPU time used (sec):       37.549
                            User time (sec):       36.175
                          System time (sec):        1.374
                         Elapsed time (sec):       38.522
  
                   Maximum memory used (kb):      295764.
                   Average memory used (kb):           0.
  
                          Minor page faults:       108089
                          Major page faults:            2
                 Voluntary context switches:         7349
