 running on   24 total cores
 distrk:  each k-point on   24 cores,    1 groups
 distr:  one band on    6 cores,    4 groups
 using from now: INCAR     
 vasp.5.4.4.18Apr17-6-g9f103f2a35 (build Mar 23 2021 02:00:50) complex          
  
 POSCAR found type information on POSCAR  Be Ba H 
 POSCAR found :  3 types and      20 ions
 scaLAPACK will be used
 LDA part: xc-table for Pade appr. of Perdew
 POSCAR, INCAR and KPOINTS ok, starting setup
 FFT: planning ...
 WAVECAR not read
 entering main loop
       N       E                     dE             d eps       ncg     rms          rms(c)
DAV:   1     0.333328932932E+03    0.33333E+03   -0.23392E+04  3996   0.318E+03
DAV:   2    -0.221582700675E+02   -0.35549E+03   -0.32989E+03  3548   0.676E+02
DAV:   3    -0.530193788004E+02   -0.30861E+02   -0.30234E+02  3688   0.103E+02
DAV:   4    -0.561843545959E+02   -0.31650E+01   -0.31605E+01  4460   0.253E+01
DAV:   5    -0.562495376347E+02   -0.65183E-01   -0.65161E-01  3784   0.498E+00    0.313E+01
RMM:   6    -0.532793484594E+02    0.29702E+01   -0.31732E+00  3699   0.560E+00    0.179E+01
RMM:   7    -0.522452719321E+02    0.10341E+01   -0.43489E+00  3806   0.698E+00    0.104E+00
RMM:   8    -0.521107651332E+02    0.13451E+00   -0.16586E-01  3908   0.189E+00    0.542E-01
RMM:   9    -0.521079996147E+02    0.27655E-02   -0.10243E-02  4446   0.608E-01    0.119E-01
RMM:  10    -0.521080535403E+02   -0.53926E-04   -0.29619E-03  4380   0.381E-01    0.282E-02
RMM:  11    -0.521081702493E+02   -0.11671E-03   -0.14786E-03  4593   0.265E-01    0.218E-02
RMM:  12    -0.521082266494E+02   -0.56400E-04   -0.64071E-04  4228   0.203E-01    0.125E-02
RMM:  13    -0.521082623050E+02   -0.35656E-04   -0.39579E-04  3712   0.162E-01    0.336E-03
RMM:  14    -0.521082824922E+02   -0.20187E-04   -0.21572E-04  3304   0.134E-01    0.427E-03
RMM:  15    -0.521082934282E+02   -0.10936E-04   -0.12588E-04  2972   0.115E-01    0.432E-03
RMM:  16    -0.521082979231E+02   -0.44949E-05   -0.60367E-05  2623   0.105E-01    0.485E-03
RMM:  17    -0.521083015451E+02   -0.36220E-05   -0.53850E-05  2725   0.104E-01    0.188E-03
RMM:  18    -0.521083029280E+02   -0.13829E-05   -0.29162E-05  2404   0.984E-02    0.339E-03
RMM:  19    -0.521083030213E+02   -0.93269E-07   -0.18117E-05  2391   0.998E-02    0.312E-03
RMM:  20    -0.521083030350E+02   -0.13732E-07   -0.19757E-05  2361   0.103E-01    0.318E-03
RMM:  21    -0.521083039363E+02   -0.90125E-06   -0.28671E-05  2457   0.105E-01    0.342E-03
RMM:  22    -0.521083042792E+02   -0.34288E-06   -0.21000E-05  2393   0.103E-01    0.339E-03
RMM:  23    -0.521083047305E+02   -0.45137E-06   -0.23107E-05  2420   0.105E-01    0.339E-03
RMM:  24    -0.521083050714E+02   -0.34086E-06   -0.21035E-05  2435   0.104E-01    0.331E-03
RMM:  25    -0.521083059725E+02   -0.90111E-06   -0.25854E-05  2397   0.103E-01    0.336E-03
RMM:  26    -0.521083061686E+02   -0.19610E-06   -0.16692E-05  2344   0.995E-02    0.344E-03
RMM:  27    -0.521083064061E+02   -0.23747E-06   -0.18143E-05  2345   0.101E-01    0.358E-03
RMM:  28    -0.521083064566E+02   -0.50485E-07   -0.15332E-05  2371   0.101E-01    0.358E-03
RMM:  29    -0.521083065549E+02   -0.98315E-07   -0.15651E-05  2375   0.102E-01    0.360E-03
RMM:  30    -0.521083064267E+02    0.12816E-06   -0.12804E-05  2333   0.100E-01    0.381E-03
RMM:  31    -0.521083066418E+02   -0.21514E-06   -0.16683E-05  2362   0.101E-01    0.388E-03
RMM:  32    -0.521083066661E+02   -0.24302E-07   -0.13572E-05  2344   0.100E-01    0.387E-03
RMM:  33    -0.521083063933E+02    0.27288E-06   -0.10829E-05  2337   0.101E-01    0.381E-03
RMM:  34    -0.521083061346E+02    0.25869E-06   -0.11461E-05  2336   0.103E-01    0.388E-03
RMM:  35    -0.521083061426E+02   -0.80327E-08   -0.13804E-05  2355   0.104E-01    0.381E-03
RMM:  36    -0.521083061787E+02   -0.36049E-07   -0.13814E-05  2379   0.105E-01    0.373E-03
RMM:  37    -0.521083061871E+02   -0.84574E-08   -0.14291E-05  2390   0.106E-01    0.385E-03
RMM:  38    -0.521083062555E+02   -0.68341E-07   -0.14986E-05  2440   0.106E-01    0.407E-03
RMM:  39    -0.521083060023E+02    0.25311E-06   -0.10826E-05  2374   0.104E-01    0.418E-03
RMM:  40    -0.521083061170E+02   -0.11470E-06   -0.14616E-05  2377   0.105E-01    0.421E-03
RMM:  41    -0.521083060819E+02    0.35156E-07   -0.12347E-05  2357   0.104E-01    0.417E-03
RMM:  42    -0.521083062462E+02   -0.16429E-06   -0.14296E-05  2390   0.105E-01    0.418E-03
RMM:  43    -0.521083064973E+02   -0.25107E-06   -0.14717E-05  2376   0.104E-01    0.420E-03
RMM:  44    -0.521083063497E+02    0.14757E-06   -0.10280E-05  2365   0.103E-01    0.419E-03
RMM:  45    -0.521083063712E+02   -0.21521E-07   -0.12686E-05  2363   0.104E-01    0.421E-03
RMM:  46    -0.521083061797E+02    0.19147E-06   -0.10354E-05  2359   0.104E-01    0.422E-03
RMM:  47    -0.521083062085E+02   -0.28768E-07   -0.12737E-05  2357   0.105E-01    0.426E-03
RMM:  48    -0.521083062169E+02   -0.83764E-08   -0.12414E-05  2351   0.105E-01    0.428E-03
RMM:  49    -0.521083062824E+02   -0.65488E-07   -0.12574E-05  2376   0.105E-01    0.433E-03
RMM:  50    -0.521083062839E+02   -0.15762E-08   -0.11742E-05  2381   0.105E-01    0.428E-03
RMM:  51    -0.521083064245E+02   -0.14052E-06   -0.12852E-05  2365   0.105E-01    0.426E-03
RMM:  52    -0.521083068093E+02   -0.38480E-06   -0.13875E-05  2509   0.105E-01    0.393E-03
RMM:  53    -0.521083068369E+02   -0.27680E-07   -0.10878E-05  2371   0.104E-01    0.371E-03
RMM:  54    -0.521083068018E+02    0.35181E-07   -0.10758E-05  2366   0.104E-01    0.374E-03
RMM:  55    -0.521083067177E+02    0.84094E-07   -0.10467E-05  2346   0.104E-01    0.373E-03
RMM:  56    -0.521083067744E+02   -0.56717E-07   -0.10487E-05  2454   0.105E-01    0.328E-03
RMM:  57    -0.521083067867E+02   -0.12352E-07   -0.11746E-05  2387   0.105E-01    0.333E-03
RMM:  58    -0.521083069999E+02   -0.21312E-06   -0.12711E-05  2415   0.104E-01    0.349E-03
RMM:  59    -0.521083071452E+02   -0.14536E-06   -0.11846E-05  2405   0.103E-01    0.360E-03
RMM:  60    -0.521083073898E+02   -0.24459E-06   -0.12834E-05  2414   0.103E-01    0.363E-03
RMM:  61    -0.521083074652E+02   -0.75386E-07   -0.99388E-06  2356   0.102E-01
   1 F= 0.22853138E+01 E0= 0.22853138E+01  d E =0.228531E+01
 BRION: g(F)=  0.150E-01 g(S)=  0.628E-03
 bond charge predicted
       N       E                     dE             d eps       ncg     rms          rms(c)
DAV:   1    -0.521774652329E+02   -0.69158E-01   -0.60179E-01  3480   0.117E+01    0.255E-01
RMM:   2    -0.521835389883E+02   -0.60738E-02   -0.69387E-02  3936   0.143E+00    0.150E-01
RMM:   3    -0.521832114279E+02    0.32756E-03   -0.27081E-03  3975   0.460E-01    0.645E-02
RMM:   4    -0.521832544447E+02   -0.43017E-04   -0.11607E-03  4049   0.300E-01    0.207E-02
RMM:   5    -0.521832881632E+02   -0.33718E-04   -0.39712E-04  3497   0.204E-01    0.110E-02
RMM:   6    -0.521833058217E+02   -0.17658E-04   -0.20799E-04  3155   0.163E-01    0.706E-03
RMM:   7    -0.521833145821E+02   -0.87604E-05   -0.11219E-04  2922   0.137E-01    0.147E-03
RMM:   8    -0.521833183106E+02   -0.37285E-05   -0.54426E-05  2534   0.121E-01    0.192E-03
RMM:   9    -0.521833200686E+02   -0.17580E-05   -0.38012E-05  2446   0.118E-01    0.464E-03
RMM:  10    -0.521833215304E+02   -0.14618E-05   -0.36331E-05  2496   0.117E-01    0.232E-03
RMM:  11    -0.521833226862E+02   -0.11558E-05   -0.31503E-05  2493   0.114E-01    0.195E-03
RMM:  12    -0.521833232081E+02   -0.52188E-06   -0.23958E-05  2433   0.112E-01    0.228E-03
RMM:  13    -0.521833239647E+02   -0.75658E-06   -0.26484E-05  2464   0.112E-01    0.263E-03
RMM:  14    -0.521833247325E+02   -0.76782E-06   -0.24888E-05  2488   0.110E-01    0.283E-03
RMM:  15    -0.521833253951E+02   -0.66263E-06   -0.22379E-05  2473   0.108E-01    0.303E-03
RMM:  16    -0.521833262206E+02   -0.82551E-06   -0.23196E-05  2496   0.107E-01    0.326E-03
RMM:  17    -0.521833267449E+02   -0.52422E-06   -0.18568E-05  2498   0.105E-01    0.342E-03
RMM:  18    -0.521833271633E+02   -0.41839E-06   -0.17509E-05  2491   0.105E-01    0.352E-03
RMM:  19    -0.521833274571E+02   -0.29382E-06   -0.16167E-05  2451   0.105E-01    0.365E-03
RMM:  20    -0.521833274085E+02    0.48610E-07   -0.12400E-05  2414   0.105E-01    0.364E-03
RMM:  21    -0.521833275435E+02   -0.13504E-06   -0.14441E-05  2422   0.105E-01    0.378E-03
RMM:  22    -0.521833276981E+02   -0.15458E-06   -0.13702E-05  2453   0.105E-01    0.386E-03
RMM:  23    -0.521833279634E+02   -0.26535E-06   -0.14332E-05  2447   0.104E-01    0.398E-03
RMM:  24    -0.521833280127E+02   -0.49273E-07   -0.10985E-05  2384   0.102E-01    0.398E-03
RMM:  25    -0.521833280475E+02   -0.34845E-07   -0.11334E-05  2411   0.102E-01    0.409E-03
RMM:  26    -0.521833284495E+02   -0.40194E-06   -0.14930E-05  2458   0.103E-01    0.419E-03
RMM:  27    -0.521833287772E+02   -0.32774E-06   -0.12805E-05  2478   0.101E-01    0.433E-03
RMM:  28    -0.521833287563E+02    0.20946E-07   -0.90111E-06  2398   0.998E-02
   2 F= 0.22769312E+01 E0= 0.22769312E+01  d E =-.838257E-02
 BRION: g(F)=  0.185E-02 g(S)=  0.145E-03 retain N=  1 mean eig= 0.90
 eig:   0.903
 bond charge predicted
       N       E                     dE             d eps       ncg     rms          rms(c)
DAV:   1    -0.522208082018E+02   -0.37479E-01   -0.22245E-02  3448   0.139E+00    0.112E-01
RMM:   2    -0.522208521684E+02   -0.43967E-04   -0.14489E-03  3934   0.262E-01    0.546E-02
RMM:   3    -0.522208247129E+02    0.27456E-04   -0.22421E-04  3936   0.125E-01    0.790E-03
RMM:   4    -0.522208293914E+02   -0.46786E-05   -0.59632E-05  2604   0.793E-02    0.523E-03
RMM:   5    -0.522208299223E+02   -0.53090E-06   -0.23621E-05  2325   0.717E-02    0.152E-03
RMM:   6    -0.522208301668E+02   -0.24445E-06   -0.13842E-05  2332   0.722E-02    0.782E-04
RMM:   7    -0.522208302688E+02   -0.10200E-06   -0.11369E-05  2275   0.733E-02    0.244E-04
RMM:   8    -0.522208300217E+02    0.24706E-06   -0.81352E-06  2276   0.757E-02
   3 F= 0.22754933E+01 E0= 0.22754933E+01  d E =-.143793E-02
 BRION: g(F)=  0.734E-03 g(S)=  0.321E-04 retain N=  2 mean eig= 1.31
 eig:   1.109  1.517
 bond charge predicted
       N       E                     dE             d eps       ncg     rms          rms(c)
DAV:   1    -0.522665735250E+02   -0.45743E-01   -0.41629E-02  3308   0.161E+00    0.164E-01
RMM:   2    -0.522665966340E+02   -0.23109E-04   -0.20925E-03  3941   0.361E-01    0.710E-02
RMM:   3    -0.522665625844E+02    0.34050E-04   -0.43748E-04  3917   0.194E-01    0.136E-02
RMM:   4    -0.522665825794E+02   -0.19995E-04   -0.22622E-04  3002   0.135E-01    0.955E-03
RMM:   5    -0.522665870794E+02   -0.45000E-05   -0.66514E-05  2539   0.107E-01    0.685E-03
RMM:   6    -0.522665884485E+02   -0.13691E-05   -0.39835E-05  2486   0.103E-01    0.122E-03
RMM:   7    -0.522665894221E+02   -0.97357E-06   -0.28420E-05  2423   0.101E-01    0.928E-04
RMM:   8    -0.522665902137E+02   -0.79164E-06   -0.26547E-05  2388   0.101E-01    0.543E-04
RMM:   9    -0.522665897953E+02    0.41842E-06   -0.14751E-05  2290   0.102E-01    0.233E-04
RMM:  10    -0.522665898039E+02   -0.86020E-08   -0.20458E-05  2337   0.106E-01    0.410E-04
RMM:  11    -0.522665905396E+02   -0.73575E-06   -0.27210E-05  2384   0.107E-01    0.908E-04
RMM:  12    -0.522665911125E+02   -0.57283E-06   -0.22494E-05  2393   0.104E-01    0.144E-03
RMM:  13    -0.522665917156E+02   -0.60310E-06   -0.22521E-05  2432   0.103E-01    0.183E-03
RMM:  14    -0.522665922150E+02   -0.49940E-06   -0.19739E-05  2410   0.100E-01    0.205E-03
RMM:  15    -0.522665933495E+02   -0.11346E-05   -0.25375E-05  2492   0.100E-01    0.251E-03
RMM:  16    -0.522665940054E+02   -0.65585E-06   -0.18070E-05  2436   0.965E-02    0.265E-03
RMM:  17    -0.522665943011E+02   -0.29576E-06   -0.14507E-05  2409   0.966E-02    0.306E-03
RMM:  18    -0.522665944854E+02   -0.18423E-06   -0.13137E-05  2410   0.966E-02    0.310E-03
RMM:  19    -0.522665943174E+02    0.16796E-06   -0.92864E-06  2372   0.950E-02
   4 F= 0.22744215E+01 E0= 0.22744215E+01  d E =-.107174E-02
 BRION: g(F)=  0.182E-03 g(S)=  0.188E-05 retain N=  2 mean eig= 2.74
 eig:   1.900  3.588
 bond charge predicted
       N       E                     dE             d eps       ncg     rms          rms(c)
DAV:   1    -0.522727478205E+02   -0.61533E-02   -0.27569E-03  3720   0.369E-01    0.269E-02
RMM:   2    -0.522727641266E+02   -0.16306E-04   -0.20997E-04  3941   0.124E-01    0.132E-02
RMM:   3    -0.522727650769E+02   -0.95027E-06   -0.31709E-05  2431   0.798E-02    0.513E-03
RMM:   4    -0.522727646118E+02    0.46513E-06   -0.91920E-06  2333   0.780E-02
   5 F= 0.22742246E+01 E0= 0.22742246E+01  d E =-.196891E-03
 BRION: g(F)=  0.131E-03 g(S)=  0.106E-05 retain N=  3 mean eig= 3.25
 eig:   1.451  4.151  4.151
 bond charge predicted
       N       E                     dE             d eps       ncg     rms          rms(c)
DAV:   1    -0.522754044535E+02   -0.26394E-02   -0.68303E-03  3236   0.568E-01    0.352E-02
RMM:   2    -0.522754356073E+02   -0.31154E-04   -0.40768E-04  3934   0.164E-01    0.183E-02
RMM:   3    -0.522754419830E+02   -0.63757E-05   -0.10376E-04  2715   0.102E-01    0.704E-03
RMM:   4    -0.522754435646E+02   -0.15816E-05   -0.29648E-05  2613   0.885E-02    0.216E-03
RMM:   5    -0.522754451804E+02   -0.16159E-05   -0.29764E-05  2539   0.868E-02    0.147E-03
RMM:   6    -0.522754453789E+02   -0.19848E-06   -0.13621E-05  2331   0.836E-02    0.530E-04
RMM:   7    -0.522754453954E+02   -0.16520E-07   -0.13578E-05  2332   0.853E-02    0.471E-04
RMM:   8    -0.522754454020E+02   -0.65356E-08   -0.13713E-05  2307   0.865E-02    0.492E-04
RMM:   9    -0.522754453915E+02    0.10443E-07   -0.14219E-05  2249   0.884E-02    0.438E-04
RMM:  10    -0.522754457724E+02   -0.38089E-06   -0.18332E-05  2277   0.899E-02    0.777E-04
RMM:  11    -0.522754458412E+02   -0.68815E-07   -0.13476E-05  2251   0.892E-02    0.838E-04
RMM:  12    -0.522754466273E+02   -0.78604E-06   -0.20494E-05  2254   0.904E-02    0.108E-03
RMM:  13    -0.522754470834E+02   -0.45611E-06   -0.14496E-05  2216   0.882E-02    0.118E-03
RMM:  14    -0.522754473328E+02   -0.24940E-06   -0.12594E-05  2262   0.893E-02    0.119E-03
RMM:  15    -0.522754470906E+02    0.24216E-06   -0.62202E-06  2202   0.881E-02
   6 F= 0.22739780E+01 E0= 0.22739780E+01  d E =-.246631E-03
 BRION: g(F)=  0.652E-04 g(S)=  0.246E-05 retain N=  4 mean eig= 4.10
 eig:   6.327  6.327  1.867  1.867
 bond charge predicted
       N       E                     dE             d eps       ncg     rms          rms(c)
DAV:   1    -0.522694286871E+02    0.60186E-02   -0.20411E-02  3240   0.955E-01    0.548E-02
RMM:   2    -0.522695036504E+02   -0.74963E-04   -0.10291E-03  3935   0.246E-01    0.304E-02
RMM:   3    -0.522695153330E+02   -0.11683E-04   -0.22297E-04  3330   0.138E-01    0.124E-02
RMM:   4    -0.522695235863E+02   -0.82533E-05   -0.10005E-04  2884   0.109E-01    0.487E-03
RMM:   5    -0.522695266429E+02   -0.30566E-05   -0.40688E-05  2450   0.954E-02    0.157E-03
RMM:   6    -0.522695274350E+02   -0.79216E-06   -0.22482E-05  2323   0.921E-02    0.699E-04
RMM:   7    -0.522695281645E+02   -0.72943E-06   -0.24210E-05  2377   0.936E-02    0.456E-04
RMM:   8    -0.522695289301E+02   -0.76562E-06   -0.23629E-05  2392   0.934E-02    0.138E-04
RMM:   9    -0.522695290799E+02   -0.14986E-06   -0.16543E-05  2337   0.928E-02    0.238E-04
RMM:  10    -0.522695293201E+02   -0.24018E-06   -0.17537E-05  2392   0.945E-02    0.301E-04
RMM:  11    -0.522695302527E+02   -0.93255E-06   -0.23550E-05  2445   0.951E-02    0.600E-04
RMM:  12    -0.522695311311E+02   -0.87845E-06   -0.20709E-05  2458   0.929E-02    0.101E-03
RMM:  13    -0.522695313631E+02   -0.23202E-06   -0.12709E-05  2448   0.906E-02    0.102E-03
RMM:  14    -0.522695311994E+02    0.16374E-06   -0.86074E-06  2377   0.894E-02
   7 F= 0.22737391E+01 E0= 0.22737391E+01  d E =-.238913E-03
 BRION: g(F)=  0.150E-04 g(S)=  0.154E-05 retain N=  5 mean eig= 4.94
 eig:   2.025  2.025  4.857  7.893  7.893
 bond charge predicted
       N       E                     dE             d eps       ncg     rms          rms(c)
DAV:   1    -0.522702485842E+02   -0.71722E-03   -0.15693E-03  3476   0.220E-01    0.160E-02
RMM:   2    -0.522702529781E+02   -0.43939E-05   -0.58915E-05  3832   0.612E-02    0.843E-03
RMM:   3    -0.522702526061E+02    0.37208E-06   -0.56031E-07  2029   0.371E-02
   8 F= 0.22736956E+01 E0= 0.22736956E+01  d E =-.434858E-04
 BRION: g(F)=  0.108E-04 g(S)=  0.112E-05 retain N=  3 mean eig= 5.53
 eig:   4.508  4.508  7.578
 bond charge predicted
       N       E                     dE             d eps       ncg     rms          rms(c)
DAV:   1    -0.522733824739E+02   -0.31295E-02   -0.27049E-03  3256   0.273E-01    0.223E-02
RMM:   2    -0.522733861001E+02   -0.36262E-05   -0.65500E-05  3808   0.411E-02    0.118E-02
RMM:   3    -0.522733842428E+02    0.18573E-05   -0.19957E-09  2167   0.138E-02    0.455E-03
RMM:   4    -0.522733841803E+02    0.62532E-07   -0.17534E-06  2533   0.165E-02
   9 F= 0.22736555E+01 E0= 0.22736555E+01  d E =-.401121E-04
 BRION: g(F)=  0.727E-05 g(S)=  0.121E-05 retain N=  1 mean eig= 4.30
 eig:   4.299
 bond charge predicted
       N       E                     dE             d eps       ncg     rms          rms(c)
DAV:   1    -0.522727704732E+02    0.61377E-03   -0.13053E-04  4084   0.159E-01    0.527E-03
RMM:   2    -0.522727713590E+02   -0.88582E-06   -0.12355E-05  3577   0.212E-02    0.293E-03
RMM:   3    -0.522727711078E+02    0.25113E-06   -0.57547E-07  1830   0.783E-03
  10 F= 0.22736494E+01 E0= 0.22736494E+01  d E =-.614694E-05
 BRION: g(F)=  0.512E-05 g(S)=  0.725E-06 retain N=  2 mean eig= 2.06
 eig:   4.027  0.087
 bond charge predicted
       N       E                     dE             d eps       ncg     rms          rms(c)
DAV:   1    -0.522701248395E+02    0.26465E-02   -0.47918E-04  3256   0.221E-01    0.900E-03
WARNING in EDDRMM: call to ZHEGV failed, returncode =   6  3      6
RMM:   2    -0.522701285963E+02   -0.37568E-05   -0.44169E-05  3876   0.471E-02    0.524E-03
RMM:   3    -0.522701283682E+02    0.22812E-06   -0.30694E-07  2020   0.218E-02
  11 F= 0.22736379E+01 E0= 0.22736379E+01  d E =-.114792E-04
 BRION: g(F)=  0.368E-05 g(S)=  0.358E-06 retain N=  3 mean eig= 2.75
 eig:   6.324  0.964  0.964
 bond charge predicted
       N       E                     dE             d eps       ncg     rms          rms(c)
DAV:   1    -0.522699170420E+02    0.21155E-03   -0.10079E-03  3400   0.244E-01    0.116E-02
RMM:   2    -0.522699229210E+02   -0.58789E-05   -0.66755E-05  3889   0.629E-02    0.713E-03
RMM:   3    -0.522699227514E+02    0.16954E-06   -0.94484E-07  2074   0.342E-02
  12 F= 0.22736254E+01 E0= 0.22736254E+01  d E =-.124276E-04
 BRION: g(F)=  0.231E-05 g(S)=  0.501E-06 retain N=  4 mean eig= 3.70
 eig:   6.675  6.675  0.102  1.347
 bond charge predicted
       N       E                     dE             d eps       ncg     rms          rms(c)
DAV:   1    -0.522711129135E+02   -0.11900E-02   -0.36762E-04  3696   0.143E-01    0.713E-03
RMM:   2    -0.522711160406E+02   -0.31270E-05   -0.33918E-05  3504   0.486E-02    0.431E-03
RMM:   3    -0.522711161307E+02   -0.90138E-07   -0.29914E-06  2147   0.342E-02
  13 F= 0.22736183E+01 E0= 0.22736183E+01  d E =-.712607E-05
 BRION: g(F)=  0.167E-05 g(S)=  0.270E-06 retain N=  3 mean eig= 4.91
 eig:   3.801  3.801  7.114
 bond charge predicted
       N       E                     dE             d eps       ncg     rms          rms(c)
DAV:   1    -0.522722313449E+02   -0.11153E-02   -0.47894E-04  3252   0.186E-01    0.759E-03
RMM:   2    -0.522722364957E+02   -0.51508E-05   -0.55814E-05  3736   0.582E-02    0.500E-03
RMM:   3    -0.522722363170E+02    0.17867E-06   -0.10596E-06  2078   0.365E-02
  14 F= 0.22736122E+01 E0= 0.22736122E+01  d E =-.607648E-05
 BRION: g(F)=  0.120E-05 g(S)=  0.153E-06 retain N=  1 mean eig= 4.54
 eig:   4.536
 bond charge predicted
       N       E                     dE             d eps       ncg     rms          rms(c)
DAV:   1    -0.522727136247E+02   -0.47713E-03   -0.52636E-04  3784   0.211E-01    0.768E-03
RMM:   2    -0.522727204096E+02   -0.67848E-05   -0.72532E-05  3811   0.653E-02    0.519E-03
RMM:   3    -0.522727202548E+02    0.15476E-06   -0.12644E-06  2048   0.404E-02
  15 F= 0.22736079E+01 E0= 0.22736079E+01  d E =-.436230E-05
 BRION: g(F)=  0.754E-06 g(S)=  0.603E-07 retain N=  1 mean eig= 5.98
 eig:   5.984
 bond charge predicted
       N       E                     dE             d eps       ncg     rms          rms(c)
DAV:   1    -0.522720905837E+02    0.62983E-03   -0.13887E-04  4272   0.883E-02    0.458E-03
RMM:   2    -0.522720918074E+02   -0.12237E-05   -0.13159E-05  2732   0.305E-02    0.305E-03
RMM:   3    -0.522720917120E+02    0.95401E-07   -0.10278E-06  1926   0.236E-02
  16 F= 0.22736035E+01 E0= 0.22736035E+01  d E =-.438426E-05
 BRION: g(F)=  0.742E-06 g(S)=  0.122E-07 retain N=  2 mean eig= 5.55
 eig:   5.550  5.550
 bond charge predicted
       N       E                     dE             d eps       ncg     rms          rms(c)
DAV:   1    -0.522717182898E+02    0.37352E-03   -0.10555E-04  3544   0.911E-02    0.316E-03
RMM:   2    -0.522717191681E+02   -0.87822E-06   -0.92070E-06  2452   0.312E-02
  17 F= 0.22736022E+01 E0= 0.22736022E+01  d E =-.129116E-05
 BRION: g(F)=  0.488E-06 g(S)=  0.256E-07 retain N=  3 mean eig= 4.05
 eig:   5.462  5.462  1.229
 bond charge predicted
       N       E                     dE             d eps       ncg     rms          rms(c)
DAV:   1    -0.522720368596E+02   -0.31857E-03   -0.32357E-05  4408   0.799E-02    0.343E-03
RMM:   2    -0.522720369651E+02   -0.10549E-06   -0.11948E-06  1765   0.594E-03
  18 F= 0.22736004E+01 E0= 0.22736004E+01  d E =-.183874E-05
 BRION: g(F)=  0.540E-06 g(S)=  0.120E-07 retain N=  4 mean eig= 4.20
 eig:   7.565  7.565  0.611  1.057
 bond charge predicted
       N       E                     dE             d eps       ncg     rms          rms(c)
DAV:   1    -0.522728345948E+02   -0.79774E-03   -0.37740E-05  3328   0.543E-02    0.267E-03
RMM:   2    -0.522728346060E+02   -0.11142E-07   -0.44141E-07  1780   0.115E-02
  19 F= 0.22735999E+01 E0= 0.22735999E+01  d E =-.474629E-06
 BRION: g(F)=  0.194E-06 g(S)=  0.613E-08 retain N=  4 mean eig= 2.59
 eig:   4.028  4.028  1.152  1.152
 reached required accuracy - stopping structural energy minimisation
 running on   24 total cores
 distrk:  each k-point on   24 cores,    1 groups
 distr:  one band on    6 cores,    4 groups
 using from now: INCAR     
 vasp.5.4.4.18Apr17-6-g9f103f2a35 (build Mar 23 2021 02:00:50) complex          
  
 POSCAR found type information on POSCAR  Be Ba H 
 POSCAR found :  3 types and      20 ions
 scaLAPACK will be used
 LDA part: xc-table for Pade appr. of Perdew
 POSCAR, INCAR and KPOINTS ok, starting setup
 FFT: planning ...
 WAVECAR not read
 WARNING: random wavefunctions but no delay for mixing, default for NELMDL
 entering main loop
       N       E                     dE             d eps       ncg     rms          rms(c)
DAV:   1     0.335963964882E+03    0.33596E+03   -0.23291E+04  3904   0.317E+03
DAV:   2    -0.226828309651E+02   -0.35865E+03   -0.33212E+03  3540   0.664E+02
DAV:   3    -0.533298930046E+02   -0.30647E+02   -0.30039E+02  3628   0.103E+02
DAV:   4    -0.564181108120E+02   -0.30882E+01   -0.30839E+01  4480   0.250E+01
DAV:   5    -0.564846095409E+02   -0.66499E-01   -0.66475E-01  3756   0.506E+00    0.310E+01
RMM:   6    -0.534561981108E+02    0.30284E+01   -0.31822E+00  4407   0.565E+00    0.178E+01
RMM:   7    -0.523871140985E+02    0.10691E+01   -0.41452E+00  4644   0.702E+00    0.107E+00
RMM:   8    -0.522761351102E+02    0.11098E+00   -0.16864E-01  4885   0.181E+00    0.555E-01
RMM:   9    -0.522728444065E+02    0.32907E-02   -0.99273E-03  5535   0.595E-01    0.113E-01
RMM:  10    -0.522728623893E+02   -0.17983E-04   -0.26342E-03  5510   0.365E-01    0.281E-02
RMM:  11    -0.522729600725E+02   -0.97683E-04   -0.12535E-03  5729   0.254E-01    0.218E-02
RMM:  12    -0.522730101515E+02   -0.50079E-04   -0.55897E-04  5362   0.195E-01    0.127E-02
RMM:  13    -0.522730397219E+02   -0.29570E-04   -0.33131E-04  4839   0.155E-01    0.374E-03
RMM:  14    -0.522730561760E+02   -0.16454E-04   -0.17841E-04  4298   0.129E-01    0.331E-03
RMM:  15    -0.522730649182E+02   -0.87422E-05   -0.10505E-04  3966   0.114E-01    0.110E-03
RMM:  16    -0.522730697147E+02   -0.47966E-05   -0.63289E-05  3602   0.106E-01    0.117E-03
RMM:  17    -0.522730708777E+02   -0.11630E-05   -0.28043E-05  3321   0.102E-01    0.781E-04
RMM:  18    -0.522730718035E+02   -0.92581E-06   -0.28784E-05  3213   0.104E-01    0.448E-04
RMM:  19    -0.522730721839E+02   -0.38036E-06   -0.22880E-05  3077   0.104E-01    0.672E-04
RMM:  20    -0.522730728182E+02   -0.63433E-06   -0.25842E-05  3008   0.106E-01    0.312E-04
RMM:  21    -0.522730734103E+02   -0.59212E-06   -0.25493E-05  2988   0.107E-01    0.494E-04
RMM:  22    -0.522730736298E+02   -0.21947E-06   -0.20894E-05  2887   0.107E-01    0.563E-04
RMM:  23    -0.522730737866E+02   -0.15676E-06   -0.20843E-05  2826   0.108E-01    0.562E-04
RMM:  24    -0.522730742744E+02   -0.48780E-06   -0.23949E-05  2771   0.109E-01    0.582E-04
RMM:  25    -0.522730749459E+02   -0.67152E-06   -0.24911E-05  2749   0.108E-01    0.753E-04
RMM:  26    -0.522730755731E+02   -0.62725E-06   -0.23362E-05  2684   0.105E-01    0.100E-03
RMM:  27    -0.522730760225E+02   -0.44933E-06   -0.20155E-05  2596   0.103E-01    0.120E-03
RMM:  28    -0.522730762326E+02   -0.21009E-06   -0.16758E-05  2521   0.101E-01    0.129E-03
RMM:  29    -0.522730760023E+02    0.23022E-06   -0.12489E-05  2483   0.101E-01    0.121E-03
RMM:  30    -0.522730759963E+02    0.60527E-08   -0.15469E-05  2492   0.103E-01    0.108E-03
RMM:  31    -0.522730758254E+02    0.17085E-06   -0.12825E-05  2439   0.103E-01    0.106E-03
RMM:  32    -0.522730756241E+02    0.20137E-06   -0.12736E-05  2442   0.105E-01    0.103E-03
RMM:  33    -0.522730754360E+02    0.18807E-06   -0.12920E-05  2440   0.106E-01    0.946E-04
RMM:  34    -0.522730752156E+02    0.22038E-06   -0.12657E-05  2438   0.107E-01    0.925E-04
RMM:  35    -0.522730752798E+02   -0.64238E-07   -0.16174E-05  2427   0.108E-01    0.958E-04
RMM:  36    -0.522730756891E+02   -0.40930E-06   -0.19344E-05  2466   0.108E-01    0.104E-03
WARNING in EDDRMM: call to ZHEGV failed, returncode =   8  4      3
RMM:  37    -0.522730759747E+02   -0.28557E-06   -0.16772E-05  2440   0.106E-01    0.107E-03
RMM:  38    -0.522730763462E+02   -0.37151E-06   -0.16924E-05  2423   0.105E-01    0.114E-03
RMM:  39    -0.522730764210E+02   -0.74738E-07   -0.13231E-05  2417   0.103E-01    0.118E-03
RMM:  40    -0.522730763656E+02    0.55391E-07   -0.11990E-05  2379   0.103E-01    0.119E-03
RMM:  41    -0.522730764027E+02   -0.37157E-07   -0.12757E-05  2388   0.103E-01    0.124E-03
RMM:  42    -0.522730762394E+02    0.16331E-06   -0.10294E-05  2370   0.103E-01    0.125E-03
RMM:  43    -0.522730761739E+02    0.65554E-07   -0.11927E-05  2400   0.105E-01    0.133E-03
RMM:  44    -0.522730761820E+02   -0.81100E-08   -0.12290E-05  2400   0.105E-01    0.137E-03
RMM:  45    -0.522730761881E+02   -0.60763E-08   -0.12062E-05  2379   0.105E-01    0.138E-03
RMM:  46    -0.522730758978E+02    0.29026E-06   -0.93081E-06  2331   0.105E-01
   1 F= 0.22733586E+01 E0= 0.22733586E+01  d E =-.894233E-11
 writing wavefunctions
