   80   80  150    1
  0.4202762E+01  0.4828057E-09  0.1301283E-08  0.5351562E-09  0.3000000E-15
  1.000000000000000E-004
  CAR 
 LOO                                     
    176      9    132
