       N       E                     dE             d eps       ncg     rms          rms(c)
DAV:   1    -0.445949333610E+03   -0.12096E+00   -0.32629E+00  3080   0.980E+00    0.991E-01
RMM:   2    -0.445973206848E+03   -0.23873E-01   -0.35022E-01  3132   0.257E+00    0.484E-01
RMM:   3    -0.445977946535E+03   -0.47397E-02   -0.76056E-02  3229   0.133E+00    0.246E-01
RMM:   4    -0.445981495075E+03   -0.35485E-02   -0.39592E-02  3236   0.938E-01    0.988E-02
RMM:   5    -0.445983257807E+03   -0.17627E-02   -0.17974E-02  3410   0.635E-01    0.771E-02
RMM:   6    -0.445984137273E+03   -0.87947E-03   -0.90016E-03  3225   0.441E-01    0.421E-02
RMM:   7    -0.445984535081E+03   -0.39781E-03   -0.41155E-03  3044   0.309E-01    0.819E-03
RMM:   8    -0.445984772896E+03   -0.23782E-03   -0.24415E-03  2696   0.231E-01    0.196E-02
RMM:   9    -0.445984882281E+03   -0.10939E-03   -0.11306E-03  2539   0.172E-01    0.230E-02
RMM:  10    -0.445984949629E+03   -0.67348E-04   -0.69768E-04  2374   0.137E-01    0.401E-02
RMM:  11    -0.445984982097E+03   -0.32468E-04   -0.35726E-04  2346   0.110E-01    0.301E-02
RMM:  12    -0.445984999410E+03   -0.17313E-04   -0.19998E-04  2280   0.924E-02    0.211E-02
RMM:  13    -0.445985007115E+03   -0.77056E-05   -0.10217E-04  2113   0.802E-02    0.185E-02
RMM:  14    -0.445985012980E+03   -0.58647E-05   -0.81656E-05  2106   0.743E-02    0.215E-02
RMM:  15    -0.445985015886E+03   -0.29057E-05   -0.48309E-05  1982   0.686E-02    0.249E-02
RMM:  16    -0.445985017009E+03   -0.11236E-05   -0.31223E-05  1931   0.659E-02    0.258E-02
RMM:  17    -0.445985018782E+03   -0.17722E-05   -0.40082E-05  1985   0.658E-02    0.259E-02
RMM:  18    -0.445985020203E+03   -0.14209E-05   -0.37963E-05  2000   0.635E-02    0.167E-02
RMM:  19    -0.445985020274E+03   -0.71937E-07   -0.24541E-05  1973   0.613E-02    0.562E-03
RMM:  20    -0.445985021102E+03   -0.82724E-06   -0.23660E-05  2007   0.602E-02    0.487E-03
RMM:  21    -0.445985022009E+03   -0.90734E-06   -0.21237E-05  1967   0.591E-02    0.497E-03
RMM:  22    -0.445985022346E+03   -0.33698E-06   -0.16129E-05  1916   0.586E-02    0.516E-03
RMM:  23    -0.445985022676E+03   -0.33029E-06   -0.17239E-05  1957   0.590E-02    0.487E-03
RMM:  24    -0.445985022871E+03   -0.19428E-06   -0.13588E-05  1935   0.585E-02    0.479E-03
RMM:  25    -0.445985023029E+03   -0.15792E-06   -0.14007E-05  1962   0.588E-02    0.470E-03
RMM:  26    -0.445985023405E+03   -0.37684E-06   -0.15469E-05  1962   0.581E-02    0.470E-03
RMM:  27    -0.445985023619E+03   -0.21334E-06   -0.12817E-05  1947   0.570E-02    0.462E-03
RMM:  28    -0.445985023790E+03   -0.17164E-06   -0.11884E-05  1944   0.567E-02    0.465E-03
RMM:  29    -0.445985024108E+03   -0.31762E-06   -0.12454E-05  1988   0.566E-02    0.455E-03
RMM:  30    -0.445985024586E+03   -0.47801E-06   -0.14120E-05  1981   0.561E-02    0.452E-03
RMM:  31    -0.445985024853E+03   -0.26692E-06   -0.11067E-05  2033   0.555E-02    0.440E-03
RMM:  32    -0.445985024909E+03   -0.55992E-07   -0.96717E-06  2046   0.553E-02
 102 F= -.23466558E+03 E0= 9999999E+01  d E =-.323133E-01
