 running on   24 total cores
 distrk:  each k-point on   24 cores,    1 groups
 distr:  one band on    6 cores,    4 groups
 using from now: INCAR     
 vasp.5.4.4.18Apr17-6-g9f103f2a35 (build Mar 23 2021 02:00:50) complex          
  
 POSCAR found type information on POSCAR  Be Ba H 
 POSCAR found :  3 types and      80 ions
 scaLAPACK will be used
 LDA part: xc-table for Pade appr. of Perdew

 ----------------------------------------------------------------------------- 
|                                                                             |
|           W    W    AA    RRRRR   N    N  II  N    N   GGGG   !!!           |
|           W    W   A  A   R    R  NN   N  II  NN   N  G    G  !!!           |
|           W    W  A    A  R    R  N N  N  II  N N  N  G       !!!           |
|           W WW W  AAAAAA  RRRRR   N  N N  II  N  N N  G  GGG   !            |
|           WW  WW  A    A  R   R   N   NN  II  N   NN  G    G                |
|           W    W  A    A  R    R  N    N  II  N    N   GGGG   !!!           |
|                                                                             |
|      The distance between some ions is very small                           |
|      please check the nearest neigbor list in the OUTCAR file               |
|          I HOPE YOU KNOW, WHAT YOU ARE  DOING                               |
|                                                                             |
 ----------------------------------------------------------------------------- 

 POSCAR, INCAR and KPOINTS ok, starting setup
 FFT: planning ...
 WAVECAR not read
 entering main loop
       N       E                     dE             d eps       ncg     rms          rms(c)
DAV:   1     0.153415962489E+04    0.15342E+04   -0.87515E+04  3440   0.378E+03
DAV:   2    -0.224266132654E+03   -0.17584E+04   -0.16136E+04  2752   0.772E+02
DAV:   3    -0.447494903770E+03   -0.22323E+03   -0.21311E+03  2744   0.166E+02
DAV:   4    -0.470622402695E+03   -0.23127E+02   -0.22904E+02  3440   0.433E+01
DAV:   5    -0.472076059357E+03   -0.14537E+01   -0.14514E+01  3336   0.134E+01    0.746E+01
RMM:   6    -0.452597570353E+03    0.19478E+02   -0.21732E+01  3161   0.841E+00    0.405E+01
RMM:   7    -0.444842845462E+03    0.77547E+01   -0.22974E+01  3221   0.105E+01    0.475E+00
RMM:   8    -0.444339892538E+03    0.50295E+00   -0.50564E-01  3342   0.190E+00    0.254E+00
RMM:   9    -0.444301275265E+03    0.38617E-01   -0.19356E-01  3240   0.124E+00    0.490E-01
RMM:  10    -0.444301318127E+03   -0.42862E-04   -0.17301E-02  3496   0.525E-01    0.206E-01
RMM:  11    -0.444301838400E+03   -0.52027E-03   -0.10230E-02  3428   0.377E-01    0.817E-02
RMM:  12    -0.444302172936E+03   -0.33454E-03   -0.42164E-03  3426   0.276E-01    0.373E-02
RMM:  13    -0.444302389598E+03   -0.21666E-03   -0.23560E-03  3091   0.206E-01    0.101E-02
RMM:  14    -0.444302511676E+03   -0.12208E-03   -0.12949E-03  2913   0.166E-01    0.960E-03
WARNING in EDDRMM: call to ZHEGV failed, returncode =   8  4      3
RMM:  15    -0.444302585815E+03   -0.74139E-04   -0.79685E-04  2603   0.135E-01    0.780E-03
RMM:  16    -0.444302627741E+03   -0.41927E-04   -0.46582E-04  2498   0.117E-01    0.912E-03
RMM:  17    -0.444302655673E+03   -0.27931E-04   -0.31491E-04  2406   0.102E-01    0.101E-02
RMM:  18    -0.444302674146E+03   -0.18473E-04   -0.19698E-04  2358   0.920E-02    0.257E-02
RMM:  19    -0.444302680942E+03   -0.67960E-05   -0.12611E-04  2262   0.840E-02    0.770E-03
WARNING in EDDRMM: call to ZHEGV failed, returncode =   8  4      7
RMM:  20    -0.444302684159E+03   -0.32171E-05   -0.88229E-05  2189   0.792E-02    0.766E-03
RMM:  21    -0.444302689121E+03   -0.49621E-05   -0.71024E-05  2025   0.754E-02    0.242E-03
RMM:  22    -0.444302691505E+03   -0.23838E-05   -0.49192E-05  1973   0.724E-02    0.154E-03
RMM:  23    -0.444302693724E+03   -0.22195E-05   -0.49660E-05  1984   0.714E-02    0.191E-03
RMM:  24    -0.444302695081E+03   -0.13567E-05   -0.36476E-05  1954   0.687E-02    0.180E-03
RMM:  25    -0.444302696299E+03   -0.12183E-05   -0.34856E-05  1944   0.676E-02    0.137E-03
RMM:  26    -0.444302697733E+03   -0.14337E-05   -0.35067E-05  1980   0.666E-02    0.143E-03
RMM:  27    -0.444302698663E+03   -0.93029E-06   -0.31913E-05  1958   0.650E-02    0.903E-04
RMM:  28    -0.444302699336E+03   -0.67323E-06   -0.26363E-05  1945   0.639E-02    0.729E-04
RMM:  29    -0.444302699417E+03   -0.80512E-07   -0.19922E-05  1896   0.638E-02    0.706E-04
RMM:  30    -0.444302699645E+03   -0.22855E-06   -0.20747E-05  1900   0.646E-02    0.721E-04
RMM:  31    -0.444302700213E+03   -0.56713E-06   -0.23818E-05  1918   0.649E-02    0.782E-04
RMM:  32    -0.444302700563E+03   -0.35090E-06   -0.20166E-05  1937   0.640E-02    0.101E-03
RMM:  33    -0.444302700741E+03   -0.17742E-06   -0.18255E-05  1912   0.636E-02    0.996E-04
RMM:  34    -0.444302700891E+03   -0.15052E-06   -0.17519E-05  1913   0.633E-02    0.110E-03
RMM:  35    -0.444302701294E+03   -0.40240E-06   -0.19633E-05  1947   0.634E-02    0.130E-03
WARNING in EDDRMM: call to ZHEGV failed, returncode =   8  4      6
RMM:  36    -0.444302701546E+03   -0.25194E-06   -0.17146E-05  1939   0.628E-02    0.143E-03
WARNING in EDDRMM: call to ZHEGV failed, returncode =   8  4      8
RMM:  37    -0.444302701723E+03   -0.17722E-06   -0.16629E-05  1956   0.628E-02    0.145E-03
 num prob RMM:  38    -0.444302702333E+03   -0.61019E-06   -0.19956E-05  1980   0.620E-02    0.158E-03
RMM:  39    -0.444302702743E+03   -0.41031E-06   -0.16231E-05  1956   0.604E-02    0.158E-03
RMM:  40    -0.444302703064E+03   -0.32106E-06   -0.14647E-05  1963   0.596E-02    0.175E-03
RMM:  41    -0.444302702982E+03    0.82859E-07   -0.10581E-05  1918   0.593E-02    0.167E-03
RMM:  42    -0.444302702955E+03    0.26605E-07   -0.11836E-05  1927   0.600E-02    0.161E-03
RMM:  43    -0.444302702771E+03    0.18367E-06   -0.10486E-05  1935   0.602E-02    0.133E-03
RMM:  44    -0.444302702734E+03    0.37220E-07   -0.11917E-05  1921   0.608E-02    0.138E-03
RMM:  45    -0.444302702674E+03    0.60205E-07   -0.12101E-05  1941   0.611E-02    0.139E-03
RMM:  46    -0.444302702541E+03    0.13284E-06   -0.10497E-05  1942   0.610E-02    0.133E-03
RMM:  47    -0.444302702867E+03   -0.32584E-06   -0.15958E-05  1928   0.617E-02    0.148E-03
RMM:  48    -0.444302702993E+03   -0.12572E-06   -0.12808E-05  1945   0.607E-02    0.155E-03
RMM:  49    -0.444302703091E+03   -0.98291E-07   -0.12462E-05  1944   0.604E-02    0.157E-03
WARNING in EDDRMM: call to ZHEGV failed, returncode =   8  4      8
RMM:  50    -0.444302703072E+03    0.19092E-07   -0.11119E-05  1902   0.600E-02    0.153E-03
RMM:  51    -0.444302703206E+03   -0.13411E-06   -0.12807E-05  1948   0.602E-02    0.173E-03
RMM:  52    -0.444302703219E+03   -0.12777E-07   -0.11027E-05  1900   0.598E-02    0.176E-03
RMM:  53    -0.444302703567E+03   -0.34842E-06   -0.14927E-05  1941   0.599E-02    0.176E-03
RMM:  54    -0.444302703945E+03   -0.37828E-06   -0.13683E-05  1933   0.591E-02    0.188E-03
RMM:  55    -0.444302704044E+03   -0.98906E-07   -0.10879E-05  1916   0.584E-02    0.195E-03
 num prob RMM:  56    -0.444302704056E+03   -0.11922E-07   -0.98456E-06  1890   0.584E-02
   1 F= -.23445018E+03 E0= -.23444322E+03  d E =-.234450E+03
 BRION: g(F)=  0.310E-01 g(S)=  0.187E-01
 bond charge predicted
       N       E                     dE             d eps       ncg     rms          rms(c)
DAV:   1    -0.445245637376E+03   -0.94293E+00   -0.10420E+00  3312   0.686E+00    0.951E-01
RMM:   2    -0.445254087912E+03   -0.84505E-02   -0.15422E-01  3156   0.154E+00    0.594E-01
RMM:   3    -0.445252566714E+03    0.15212E-02   -0.23906E-02  3172   0.730E-01    0.949E-02
RMM:   4    -0.445253797675E+03   -0.12310E-02   -0.13428E-02  3405   0.518E-01    0.834E-02
RMM:   5    -0.445254320911E+03   -0.52324E-03   -0.54931E-03  3345   0.342E-01    0.640E-02
RMM:   6    -0.445254571057E+03   -0.25015E-03   -0.26886E-03  3033   0.235E-01    0.392E-02
RMM:   7    -0.445254656632E+03   -0.85575E-04   -0.10042E-03  3178   0.167E-01    0.123E-02
RMM:   8    -0.445254724394E+03   -0.67761E-04   -0.73679E-04  2436   0.131E-01    0.584E-03
WARNING in EDDRMM: call to ZHEGV failed, returncode =   8  4      3
RMM:   9    -0.445254745153E+03   -0.20760E-04   -0.23705E-04  2213   0.101E-01    0.314E-03
RMM:  10    -0.445254761102E+03   -0.15948E-04   -0.19723E-04  2161   0.908E-02    0.319E-03
RMM:  11    -0.445254769464E+03   -0.83623E-05   -0.11312E-04  2027   0.794E-02    0.102E-03
RMM:  12    -0.445254772629E+03   -0.31650E-05   -0.54520E-05  1953   0.746E-02    0.228E-03
RMM:  13    -0.445254774386E+03   -0.17566E-05   -0.44984E-05  1993   0.734E-02    0.248E-03
RMM:  14    -0.445254775630E+03   -0.12442E-05   -0.39744E-05  1949   0.718E-02    0.267E-03
RMM:  15    -0.445254777319E+03   -0.16888E-05   -0.41872E-05  1943   0.702E-02    0.299E-03
RMM:  16    -0.445254779253E+03   -0.19341E-05   -0.42098E-05  1955   0.683E-02    0.311E-03
RMM:  17    -0.445254781378E+03   -0.21250E-05   -0.41297E-05  1985   0.667E-02    0.360E-03
RMM:  18    -0.445254783549E+03   -0.21714E-05   -0.37752E-05  2004   0.640E-02    0.526E-03
RMM:  19    -0.445254784892E+03   -0.13432E-05   -0.29224E-05  2007   0.612E-02    0.529E-03
RMM:  20    -0.445254785493E+03   -0.60088E-06   -0.20618E-05  1936   0.592E-02    0.507E-03
RMM:  21    -0.445254785594E+03   -0.10074E-06   -0.14273E-05  1949   0.585E-02    0.516E-03
RMM:  22    -0.445254785839E+03   -0.24505E-06   -0.16214E-05  1929   0.587E-02    0.502E-03
RMM:  23    -0.445254785685E+03    0.15392E-06   -0.11706E-05  1917   0.586E-02    0.484E-03
RMM:  24    -0.445254786096E+03   -0.41068E-06   -0.17598E-05  1951   0.592E-02    0.471E-03
RMM:  25    -0.445254786369E+03   -0.27280E-06   -0.14307E-05  1952   0.578E-02    0.471E-03
RMM:  26    -0.445254786633E+03   -0.26423E-06   -0.13401E-05  1947   0.575E-02    0.479E-03
RMM:  27    -0.445254786854E+03   -0.22101E-06   -0.12609E-05  1959   0.575E-02    0.505E-03
WARNING in EDDRMM: call to ZHEGV failed, returncode =   8  4     10
RMM:  28    -0.445254787102E+03   -0.24814E-06   -0.12915E-05  1962   0.575E-02    0.502E-03
RMM:  29    -0.445254786982E+03    0.12029E-06   -0.92800E-06  1963   0.573E-02
   2 F= -.23453041E+03 E0= -.23452328E+03  d E =-.802247E-01
 BRION: g(F)=  0.106E-01 g(S)=  0.371E-02 retain N=  1 mean eig= 0.82
 eig:   0.821
 bond charge predicted
       N       E                     dE             d eps       ncg     rms          rms(c)
DAV:   1    -0.445472738451E+03   -0.21795E+00   -0.16233E-01  2760   0.174E+00    0.294E-01
RMM:   2    -0.445473054824E+03   -0.31637E-03   -0.12076E-02  3158   0.524E-01    0.141E-01
RMM:   3    -0.445473048866E+03    0.59584E-05   -0.32894E-03  3196   0.277E-01    0.464E-02
RMM:   4    -0.445473236811E+03   -0.18794E-03   -0.21132E-03  3208   0.207E-01    0.333E-02
RMM:   5    -0.445473300737E+03   -0.63926E-04   -0.70842E-04  2824   0.127E-01    0.202E-02
RMM:   6    -0.445473333110E+03   -0.32373E-04   -0.37251E-04  2511   0.988E-02    0.142E-02
RMM:   7    -0.445473343668E+03   -0.10558E-04   -0.14644E-04  2251   0.752E-02    0.355E-03
RMM:   8    -0.445473349997E+03   -0.63281E-05   -0.88237E-05  2048   0.668E-02    0.292E-03
RMM:   9    -0.445473351870E+03   -0.18737E-05   -0.36473E-05  1872   0.613E-02    0.373E-03
RMM:  10    -0.445473352304E+03   -0.43383E-06   -0.28542E-05  1839   0.610E-02    0.283E-03
RMM:  11    -0.445473353080E+03   -0.77621E-06   -0.30825E-05  1905   0.617E-02    0.189E-03
WARNING in EDDRMM: call to ZHEGV failed, returncode =   8  4     10
RMM:  12    -0.445473354406E+03   -0.13259E-05   -0.32033E-05  1897   0.610E-02    0.227E-03
RMM:  13    -0.445473355070E+03   -0.66355E-06   -0.23834E-05  1915   0.601E-02    0.284E-03
RMM:  14    -0.445473355702E+03   -0.63252E-06   -0.24117E-05  1887   0.599E-02    0.332E-03
RMM:  15    -0.445473356944E+03   -0.12415E-05   -0.29365E-05  1944   0.605E-02    0.388E-03
RMM:  16    -0.445473357822E+03   -0.87859E-06   -0.24623E-05  1923   0.589E-02    0.413E-03
RMM:  17    -0.445473358236E+03   -0.41405E-06   -0.18350E-05  1894   0.578E-02    0.453E-03
RMM:  18    -0.445473358702E+03   -0.46561E-06   -0.19145E-05  1913   0.580E-02    0.464E-03
RMM:  19    -0.445473358837E+03   -0.13491E-06   -0.14390E-05  1919   0.574E-02    0.463E-03
RMM:  20    -0.445473359260E+03   -0.42281E-06   -0.16922E-05  1911   0.571E-02    0.459E-03
RMM:  21    -0.445473359156E+03    0.10386E-06   -0.10074E-05  1907   0.560E-02    0.458E-03
RMM:  22    -0.445473358981E+03    0.17494E-06   -0.92710E-06  1896   0.563E-02
   3 F= -.23455353E+03 E0= -.23454639E+03  d E =-.231191E-01
 BRION: g(F)=  0.807E-02 g(S)=  0.144E-02 retain N=  2 mean eig= 1.41
 eig:   0.374  2.449
 bond charge predicted
       N       E                     dE             d eps       ncg     rms          rms(c)
DAV:   1    -0.445575405612E+03   -0.10205E+00   -0.27181E-01  2672   0.159E+00    0.234E-01
RMM:   2    -0.445575736699E+03   -0.33109E-03   -0.11708E-02  3132   0.383E-01    0.127E-01
RMM:   3    -0.445575586279E+03    0.15042E-03   -0.14304E-03  3227   0.163E-01    0.571E-02
RMM:   4    -0.445575637108E+03   -0.50829E-04   -0.72885E-04  3219   0.116E-01    0.184E-02
RMM:   5    -0.445575655939E+03   -0.18831E-04   -0.24383E-04  2320   0.803E-02    0.889E-03
RMM:   6    -0.445575665312E+03   -0.93723E-05   -0.12963E-04  2097   0.695E-02    0.522E-03
RMM:   7    -0.445575669273E+03   -0.39611E-05   -0.69850E-05  2023   0.628E-02    0.136E-03
RMM:   8    -0.445575672107E+03   -0.28346E-05   -0.45647E-05  1929   0.594E-02    0.134E-03
RMM:   9    -0.445575672828E+03   -0.72104E-06   -0.25399E-05  1901   0.579E-02    0.674E-04
RMM:  10    -0.445575673829E+03   -0.10004E-05   -0.28100E-05  1954   0.584E-02    0.995E-04
RMM:  11    -0.445575675348E+03   -0.15188E-05   -0.31583E-05  1943   0.567E-02    0.163E-03
RMM:  12    -0.445575676433E+03   -0.10849E-05   -0.23787E-05  1913   0.549E-02    0.270E-03
RMM:  13    -0.445575676865E+03   -0.43237E-06   -0.17580E-05  1856   0.536E-02    0.275E-03
RMM:  14    -0.445575677563E+03   -0.69826E-06   -0.20028E-05  1870   0.535E-02    0.302E-03
RMM:  15    -0.445575678101E+03   -0.53799E-06   -0.17920E-05  1913   0.536E-02    0.311E-03
RMM:  16    -0.445575678187E+03   -0.85944E-07   -0.13689E-05  1910   0.538E-02    0.292E-03
RMM:  17    -0.445575677859E+03    0.32800E-06   -0.88667E-06  1857   0.543E-02
   4 F= -.23457166E+03 E0= -.23456477E+03  d E =-.181340E-01
 BRION: g(F)=  0.525E-02 g(S)=  0.127E-02 retain N=  1 mean eig= 5.00
 eig:   5.002
 bond charge predicted
       N       E                     dE             d eps       ncg     rms          rms(c)
DAV:   1    -0.445671810792E+03   -0.96133E-01   -0.60385E-01  2572   0.270E+00    0.381E-01
RMM:   2    -0.445672263385E+03   -0.45259E-03   -0.26806E-02  3130   0.668E-01    0.210E-01
RMM:   3    -0.445672141857E+03    0.12153E-03   -0.51395E-03  3218   0.327E-01    0.885E-02
RMM:   4    -0.445672395379E+03   -0.25352E-03   -0.30189E-03  3210   0.236E-01    0.309E-02
RMM:   5    -0.445672483219E+03   -0.87840E-04   -0.96173E-04  2853   0.154E-01    0.192E-02
RMM:   6    -0.445672539612E+03   -0.56393E-04   -0.61301E-04  2538   0.122E-01    0.977E-03
WARNING in EDDRMM: call to ZHEGV failed, returncode =   8  4     19
RMM:   7    -0.445672560956E+03   -0.21345E-04   -0.24265E-04  2218   0.940E-02    0.157E-03
RMM:   8    -0.445672572842E+03   -0.11885E-04   -0.14292E-04  2121   0.818E-02    0.296E-03
RMM:   9    -0.445672579913E+03   -0.70718E-05   -0.95394E-05  2069   0.744E-02    0.588E-03
RMM:  10    -0.445672583700E+03   -0.37863E-05   -0.57313E-05  1948   0.691E-02    0.830E-03
RMM:  11    -0.445672585557E+03   -0.18572E-05   -0.41364E-05  1953   0.672E-02    0.553E-03
RMM:  12    -0.445672586779E+03   -0.12225E-05   -0.35094E-05  1954   0.661E-02    0.638E-03
RMM:  13    -0.445672588030E+03   -0.12503E-05   -0.32436E-05  1957   0.648E-02    0.744E-03
WARNING in EDDRMM: call to ZHEGV failed, returncode =   8  4      9
RMM:  14    -0.445672589554E+03   -0.15240E-05   -0.33984E-05  1990   0.631E-02    0.769E-03
RMM:  15    -0.445672591149E+03   -0.15954E-05   -0.31983E-05  1981   0.608E-02    0.820E-03
RMM:  16    -0.445672592771E+03   -0.16222E-05   -0.31661E-05  1990   0.588E-02    0.842E-03
RMM:  17    -0.445672593456E+03   -0.68490E-06   -0.20441E-05  1934   0.569E-02    0.811E-03
RMM:  18    -0.445672593807E+03   -0.35046E-06   -0.16622E-05  1919   0.570E-02    0.836E-03
RMM:  19    -0.445672594358E+03   -0.55104E-06   -0.18964E-05  1928   0.573E-02    0.844E-03
RMM:  20    -0.445672594625E+03   -0.26756E-06   -0.14734E-05  1930   0.567E-02    0.875E-03
RMM:  21    -0.445672594760E+03   -0.13454E-06   -0.12953E-05  1927   0.563E-02    0.882E-03
RMM:  22    -0.445672594458E+03    0.30205E-06   -0.81229E-06  1890   0.559E-02
   5 F= -.23459200E+03 E0= -.23458588E+03  d E =-.203381E-01
 BRION: g(F)=  0.326E-02 g(S)=  0.496E-03 retain N=  2 mean eig= 7.83
 eig:   7.829  7.829
 bond charge predicted
       N       E                     dE             d eps       ncg     rms          rms(c)
DAV:   1    -0.445739999560E+03   -0.67405E-01   -0.71257E-01  2680   0.332E+00    0.409E-01
RMM:   2    -0.445742431625E+03   -0.24321E-02   -0.44874E-02  3141   0.951E-01    0.226E-01
RMM:   3    -0.445742859945E+03   -0.42832E-03   -0.11365E-02  3204   0.513E-01    0.951E-02
RMM:   4    -0.445743442218E+03   -0.58227E-03   -0.63711E-03  3184   0.372E-01    0.428E-02
RMM:   5    -0.445743681460E+03   -0.23924E-03   -0.24953E-03  3105   0.245E-01    0.335E-02
RMM:   6    -0.445743817971E+03   -0.13651E-03   -0.14357E-03  2768   0.183E-01    0.122E-02
RMM:   7    -0.445743877758E+03   -0.59787E-04   -0.63913E-04  2455   0.134E-01    0.538E-03
RMM:   8    -0.445743913431E+03   -0.35673E-04   -0.38510E-04  2321   0.109E-01    0.589E-03
RMM:   9    -0.445743929846E+03   -0.16415E-04   -0.18799E-04  2235   0.893E-02    0.254E-03
RMM:  10    -0.445743938224E+03   -0.83784E-05   -0.10603E-04  2131   0.792E-02    0.358E-03
RMM:  11    -0.445743942304E+03   -0.40797E-05   -0.63838E-05  2061   0.723E-02    0.112E-03
WARNING in EDDRMM: call to ZHEGV failed, returncode =   8  4      7
RMM:  12    -0.445743943943E+03   -0.16394E-05   -0.37168E-05  1936   0.683E-02    0.323E-03
RMM:  13    -0.445743946196E+03   -0.22529E-05   -0.46928E-05  1983   0.675E-02    0.367E-04
RMM:  14    -0.445743948730E+03   -0.25342E-05   -0.45195E-05  2002   0.644E-02    0.107E-03
WARNING in EDDRMM: call to ZHEGV failed, returncode =   8  4      8
RMM:  15    -0.445743949897E+03   -0.11662E-05   -0.28165E-05  1973   0.612E-02    0.192E-03
RMM:  16    -0.445743951201E+03   -0.13044E-05   -0.29495E-05  1951   0.603E-02    0.253E-03
RMM:  17    -0.445743952024E+03   -0.82328E-06   -0.22859E-05  1945   0.590E-02    0.310E-03
RMM:  18    -0.445743952676E+03   -0.65168E-06   -0.21127E-05  1936   0.586E-02    0.334E-03
RMM:  19    -0.445743953108E+03   -0.43174E-06   -0.17655E-05  1933   0.579E-02    0.359E-03
RMM:  20    -0.445743953638E+03   -0.53080E-06   -0.18814E-05  1927   0.581E-02    0.399E-03
RMM:  21    -0.445743954060E+03   -0.42191E-06   -0.16906E-05  1931   0.574E-02    0.412E-03
RMM:  22    -0.445743954123E+03   -0.63104E-07   -0.12590E-05  1897   0.567E-02    0.417E-03
RMM:  23    -0.445743954299E+03   -0.17589E-06   -0.13918E-05  1913   0.570E-02    0.417E-03
RMM:  24    -0.445743954411E+03   -0.11206E-06   -0.12222E-05  1909   0.563E-02    0.413E-03
RMM:  25    -0.445743954492E+03   -0.80494E-07   -0.11263E-05  1931   0.559E-02    0.413E-03
RMM:  26    -0.445743954915E+03   -0.42317E-06   -0.14192E-05  1972   0.560E-02    0.426E-03
RMM:  27    -0.445743954942E+03   -0.26779E-07   -0.95617E-06  1953   0.555E-02
   6 F= -.23460754E+03 E0= -.23460165E+03  d E =-.155363E-01
 BRION: g(F)=  0.216E-02 g(S)=  0.351E-03
 BRIONS problems: POTIM should be increased
 retain N=  1 mean eig= 9.82
 eig:   9.815
 bond charge predicted
       N       E                     dE             d eps       ncg     rms          rms(c)
DAV:   1    -0.445776697903E+03   -0.32743E-01   -0.38816E-01  2908   0.326E+00    0.302E-01
RMM:   2    -0.445779831905E+03   -0.31340E-02   -0.40299E-02  3151   0.906E-01    0.177E-01
RMM:   3    -0.445780451177E+03   -0.61927E-03   -0.10012E-02  3198   0.495E-01    0.751E-02
RMM:   4    -0.445780974141E+03   -0.52296E-03   -0.55874E-03  3162   0.356E-01    0.386E-02
RMM:   5    -0.445781206219E+03   -0.23208E-03   -0.23986E-03  3103   0.240E-01    0.337E-02
RMM:   6    -0.445781329833E+03   -0.12361E-03   -0.12960E-03  2781   0.174E-01    0.141E-02
RMM:   7    -0.445781381269E+03   -0.51436E-04   -0.56207E-04  2483   0.127E-01    0.316E-03
RMM:   8    -0.445781414570E+03   -0.33301E-04   -0.35525E-04  2305   0.103E-01    0.701E-03
RMM:   9    -0.445781427508E+03   -0.12938E-04   -0.15284E-04  2159   0.839E-02    0.432E-03
RMM:  10    -0.445781435414E+03   -0.79061E-05   -0.10557E-04  2184   0.758E-02    0.669E-04
RMM:  11    -0.445781438504E+03   -0.30897E-05   -0.48136E-05  1963   0.683E-02    0.301E-03
RMM:  12    -0.445781440634E+03   -0.21299E-05   -0.44956E-05  1960   0.663E-02    0.133E-03
RMM:  13    -0.445781441702E+03   -0.10686E-05   -0.29727E-05  1912   0.641E-02    0.308E-03
RMM:  14    -0.445781443339E+03   -0.16370E-05   -0.36255E-05  1966   0.637E-02    0.369E-03
RMM:  15    -0.445781444467E+03   -0.11279E-05   -0.29554E-05  1934   0.622E-02    0.429E-03
RMM:  16    -0.445781446161E+03   -0.16938E-05   -0.33597E-05  1972   0.610E-02    0.472E-03
RMM:  17    -0.445781447032E+03   -0.87141E-06   -0.22201E-05  1928   0.580E-02    0.465E-03
WARNING in EDDRMM: call to ZHEGV failed, returncode =   8  4     12
RMM:  18    -0.445781447694E+03   -0.66162E-06   -0.19879E-05  1917   0.572E-02    0.492E-03
RMM:  19    -0.445781447926E+03   -0.23172E-06   -0.15720E-05  1891   0.573E-02    0.516E-03
RMM:  20    -0.445781448161E+03   -0.23536E-06   -0.15981E-05  1905   0.576E-02    0.520E-03
RMM:  21    -0.445781448289E+03   -0.12803E-06   -0.14899E-05  1917   0.572E-02    0.455E-03
WARNING in EDDRMM: call to ZHEGV failed, returncode =   8  4      9
RMM:  22    -0.445781448281E+03    0.75961E-08   -0.13601E-05  1940   0.571E-02    0.394E-03
RMM:  23    -0.445781448345E+03   -0.63628E-07   -0.12726E-05  1930   0.564E-02    0.300E-03
RMM:  24    -0.445781448401E+03   -0.55785E-07   -0.10943E-05  1925   0.563E-02    0.291E-03
RMM:  25    -0.445781448464E+03   -0.63199E-07   -0.10899E-05  1940   0.565E-02    0.283E-03
RMM:  26    -0.445781448468E+03   -0.40818E-08   -0.10272E-05  1953   0.566E-02    0.267E-03
RMM:  27    -0.445781448594E+03   -0.12548E-06   -0.11176E-05  1970   0.565E-02    0.273E-03
RMM:  28    -0.445781448877E+03   -0.28380E-06   -0.12458E-05  1961   0.558E-02    0.237E-03
RMM:  29    -0.445781449052E+03   -0.17474E-06   -0.10192E-05  1935   0.549E-02    0.235E-03
RMM:  30    -0.445781449155E+03   -0.10321E-06   -0.96790E-06  1934   0.549E-02
   7 F= -.23461678E+03 E0= -.23461027E+03  d E =-.924053E-02
 BRION: g(F)=  0.200E-02 g(S)=  0.384E-03 retain N=  1 mean eig= 6.14
 eig:   6.141
 bond charge predicted
       N       E                     dE             d eps       ncg     rms          rms(c)
DAV:   1    -0.445789769803E+03   -0.83208E-02   -0.49354E-02  3288   0.137E+00    0.120E-01
RMM:   2    -0.445790273832E+03   -0.50403E-03   -0.64149E-03  3158   0.343E-01    0.554E-02
RMM:   3    -0.445790355339E+03   -0.81507E-04   -0.11708E-03  3185   0.174E-01    0.301E-02
WARNING in EDDRMM: call to ZHEGV failed, returncode =   6  3     20
RMM:   4    -0.445790404393E+03   -0.49054E-04   -0.56426E-04  2862   0.126E-01    0.101E-02
WARNING in EDDRMM: call to ZHEGV failed, returncode =   6  3     10
RMM:   5    -0.445790432225E+03   -0.27832E-04   -0.31002E-04  2422   0.974E-02    0.759E-03
RMM:   6    -0.445790448011E+03   -0.15786E-04   -0.18400E-04  2241   0.788E-02    0.470E-03
RMM:   7    -0.445790454180E+03   -0.61694E-05   -0.84085E-05  2011   0.666E-02    0.135E-03
RMM:   8    -0.445790456808E+03   -0.26273E-05   -0.43968E-05  1929   0.628E-02    0.159E-03
RMM:   9    -0.445790457554E+03   -0.74659E-06   -0.27359E-05  1873   0.616E-02    0.239E-03
RMM:  10    -0.445790458213E+03   -0.65852E-06   -0.28262E-05  1896   0.614E-02    0.271E-03
RMM:  11    -0.445790458984E+03   -0.77114E-06   -0.28648E-05  1834   0.605E-02    0.253E-03
RMM:  12    -0.445790459230E+03   -0.24637E-06   -0.21786E-05  1823   0.600E-02    0.269E-03
RMM:  13    -0.445790460615E+03   -0.13846E-05   -0.34729E-05  1864   0.611E-02    0.270E-03
RMM:  14    -0.445790462381E+03   -0.17665E-05   -0.34407E-05  1848   0.596E-02    0.305E-03
RMM:  15    -0.445790463061E+03   -0.67987E-06   -0.22717E-05  1823   0.581E-02    0.303E-03
RMM:  16    -0.445790463811E+03   -0.75000E-06   -0.23148E-05  1881   0.579E-02    0.328E-03
WARNING in EDDRMM: call to ZHEGV failed, returncode =   8  4     10
RMM:  17    -0.445790464656E+03   -0.84500E-06   -0.22824E-05  1876   0.567E-02    0.351E-03
RMM:  18    -0.445790464586E+03    0.69878E-07   -0.12481E-05  1787   0.552E-02    0.361E-03
RMM:  19    -0.445790464684E+03   -0.97658E-07   -0.15120E-05  1853   0.564E-02    0.396E-03
RMM:  20    -0.445790464340E+03    0.34429E-06   -0.10233E-05  1804   0.561E-02    0.371E-03
RMM:  21    -0.445790464016E+03    0.32333E-06   -0.11698E-05  1844   0.571E-02    0.272E-03
RMM:  22    -0.445790464068E+03   -0.51430E-07   -0.16156E-05  1983   0.576E-02    0.136E-03
RMM:  23    -0.445790464529E+03   -0.46143E-06   -0.17441E-05  1928   0.564E-02    0.144E-03
RMM:  24    -0.445790464851E+03   -0.32191E-06   -0.13811E-05  1854   0.551E-02    0.145E-03
RMM:  25    -0.445790465302E+03   -0.45065E-06   -0.14407E-05  1899   0.551E-02    0.201E-03
RMM:  26    -0.445790465439E+03   -0.13738E-06   -0.11196E-05  1907   0.549E-02    0.254E-03
RMM:  27    -0.445790465585E+03   -0.14620E-06   -0.12287E-05  1898   0.551E-02    0.241E-03
RMM:  28    -0.445790465676E+03   -0.90469E-07   -0.11014E-05  1886   0.549E-02    0.250E-03
RMM:  29    -0.445790465805E+03   -0.12940E-06   -0.12052E-05  1894   0.554E-02    0.247E-03
RMM:  30    -0.445790465837E+03   -0.31607E-07   -0.10173E-05  1892   0.552E-02    0.264E-03
RMM:  31    -0.445790465869E+03   -0.31810E-07   -0.10774E-05  1899   0.557E-02    0.258E-03
RMM:  32    -0.445790465752E+03    0.11613E-06   -0.85054E-06  1916   0.554E-02
   8 F= -.23461969E+03 E0= -.23461285E+03  d E =-.291874E-02
 BRION: g(F)=  0.177E-02 g(S)=  0.444E-03 retain N=  1 mean eig= 1.30
 eig:   1.299
 bond charge predicted
       N       E                     dE             d eps       ncg     rms          rms(c)
DAV:   1    -0.445805344672E+03   -0.14879E-01   -0.10836E-01  2992   0.205E+00    0.163E-01
RMM:   2    -0.445806403398E+03   -0.10587E-02   -0.13278E-02  3151   0.487E-01    0.847E-02
RMM:   3    -0.445806534615E+03   -0.13122E-03   -0.23533E-03  3210   0.241E-01    0.418E-02
RMM:   4    -0.445806647366E+03   -0.11275E-03   -0.12559E-03  3078   0.173E-01    0.159E-02
RMM:   5    -0.445806702488E+03   -0.55123E-04   -0.58373E-04  2733   0.123E-01    0.128E-02
RMM:   6    -0.445806730375E+03   -0.27886E-04   -0.31371E-04  2350   0.930E-02    0.523E-03
RMM:   7    -0.445806741492E+03   -0.11117E-04   -0.13459E-04  2130   0.753E-02    0.108E-03
RMM:   8    -0.445806746950E+03   -0.54584E-05   -0.74846E-05  2045   0.683E-02    0.156E-03
RMM:   9    -0.445806749728E+03   -0.27776E-05   -0.51376E-05  1933   0.642E-02    0.148E-03
RMM:  10    -0.445806751866E+03   -0.21378E-05   -0.39462E-05  1883   0.622E-02    0.140E-03
RMM:  11    -0.445806752450E+03   -0.58399E-06   -0.24704E-05  1824   0.614E-02    0.243E-03
RMM:  12    -0.445806752335E+03    0.11408E-06   -0.19992E-05  1823   0.624E-02    0.233E-03
RMM:  13    -0.445806753157E+03   -0.82138E-06   -0.30834E-05  1844   0.641E-02    0.254E-03
RMM:  14    -0.445806754526E+03   -0.13688E-05   -0.33466E-05  1895   0.633E-02    0.296E-03
RMM:  15    -0.445806755496E+03   -0.96986E-06   -0.27941E-05  1911   0.619E-02    0.334E-03
RMM:  16    -0.445806756014E+03   -0.51844E-06   -0.22830E-05  1874   0.606E-02    0.349E-03
RMM:  17    -0.445806756685E+03   -0.67073E-06   -0.24368E-05  1865   0.600E-02    0.361E-03
RMM:  18    -0.445806758014E+03   -0.13290E-05   -0.28724E-05  1916   0.584E-02    0.424E-03
RMM:  19    -0.445806759087E+03   -0.10738E-05   -0.24236E-05  1883   0.561E-02    0.456E-03
WARNING in EDDRMM: call to ZHEGV failed, returncode =   8  4      9
RMM:  20    -0.445806759274E+03   -0.18649E-06   -0.14142E-05  1841   0.545E-02    0.465E-03
WARNING in EDDRMM: call to ZHEGV failed, returncode =   8  4     11
RMM:  21    -0.445806759415E+03   -0.14105E-06   -0.14211E-05  1890   0.550E-02    0.452E-03
RMM:  22    -0.445806759352E+03    0.63283E-07   -0.11318E-05  1879   0.545E-02    0.436E-03
RMM:  23    -0.445806759645E+03   -0.29314E-06   -0.14686E-05  1883   0.547E-02    0.439E-03
RMM:  24    -0.445806759510E+03    0.13508E-06   -0.94129E-06  1830   0.540E-02
   9 F= -.23462420E+03 E0= -.23461692E+03  d E =-.450087E-02
 BRION: g(F)=  0.174E-02 g(S)=  0.421E-03 retain N=  1 mean eig= 0.89
 eig:   0.892
 bond charge predicted
       N       E                     dE             d eps       ncg     rms          rms(c)
DAV:   1    -0.445809135868E+03   -0.23762E-02   -0.59848E-03  2920   0.376E-01    0.481E-02
RMM:   2    -0.445809190693E+03   -0.54825E-04   -0.76508E-04  3163   0.132E-01    0.198E-02
RMM:   3    -0.445809200916E+03   -0.10223E-04   -0.14994E-04  2546   0.768E-02    0.111E-02
RMM:   4    -0.445809204764E+03   -0.38482E-05   -0.66304E-05  2263   0.654E-02    0.264E-03
RMM:   5    -0.445809207219E+03   -0.24554E-05   -0.45698E-05  1845   0.609E-02    0.156E-03
RMM:   6    -0.445809208553E+03   -0.13341E-05   -0.33007E-05  1826   0.596E-02    0.105E-03
RMM:   7    -0.445809208872E+03   -0.31912E-06   -0.21503E-05  1794   0.595E-02    0.608E-04
RMM:   8    -0.445809210017E+03   -0.11447E-05   -0.31414E-05  1879   0.611E-02    0.772E-04
RMM:   9    -0.445809210225E+03   -0.20734E-06   -0.21091E-05  1803   0.610E-02    0.634E-04
RMM:  10    -0.445809210920E+03   -0.69583E-06   -0.29219E-05  1858   0.627E-02    0.932E-04
RMM:  11    -0.445809211696E+03   -0.77572E-06   -0.25038E-05  1873   0.611E-02    0.118E-03
RMM:  12    -0.445809212349E+03   -0.65302E-06   -0.21485E-05  1793   0.590E-02    0.136E-03
RMM:  13    -0.445809212679E+03   -0.33012E-06   -0.19547E-05  1804   0.593E-02    0.142E-03
RMM:  14    -0.445809212622E+03    0.57051E-07   -0.14832E-05  1800   0.594E-02    0.148E-03
 num prob RMM:  15    -0.445809213027E+03   -0.40526E-06   -0.20510E-05  1839   0.600E-02    0.166E-03
RMM:  16    -0.445809213253E+03   -0.22553E-06   -0.17453E-05  1836   0.593E-02    0.175E-03
RMM:  17    -0.445809213264E+03   -0.11183E-07   -0.14779E-05  1822   0.588E-02    0.175E-03
RMM:  18    -0.445809213697E+03   -0.43311E-06   -0.18504E-05  1828   0.588E-02    0.196E-03
RMM:  19    -0.445809213878E+03   -0.18047E-06   -0.14959E-05  1857   0.583E-02    0.209E-03
WARNING in EDDRMM: call to ZHEGV failed, returncode =   8  4     12
RMM:  20    -0.445809213903E+03   -0.25004E-07   -0.12916E-05  1869   0.582E-02    0.217E-03
RMM:  21    -0.445809213922E+03   -0.19543E-07   -0.12424E-05  1865   0.581E-02    0.220E-03
RMM:  22    -0.445809214107E+03   -0.18513E-06   -0.14452E-05  1931   0.581E-02    0.234E-03
RMM:  23    -0.445809214632E+03   -0.52457E-06   -0.16526E-05  1934   0.574E-02    0.244E-03
RMM:  24    -0.445809214688E+03   -0.56123E-07   -0.10199E-05  1876   0.558E-02    0.250E-03
WARNING in EDDRMM: call to ZHEGV failed, returncode =   8  4     11
RMM:  25    -0.445809214687E+03    0.15098E-08   -0.10928E-05  1885   0.562E-02    0.257E-03
RMM:  26    -0.445809214907E+03   -0.22016E-06   -0.12428E-05  1900   0.567E-02    0.258E-03
RMM:  27    -0.445809215034E+03   -0.12681E-06   -0.10500E-05  1918   0.566E-02    0.266E-03
RMM:  28    -0.445809215504E+03   -0.47022E-06   -0.12912E-05  1934   0.566E-02    0.291E-03
RMM:  29    -0.445809215483E+03    0.20500E-07   -0.85512E-06  1875   0.562E-02
  10 F= -.23462524E+03 E0= -.23461783E+03  d E =-.104145E-02
 BRION: g(F)=  0.172E-02 g(S)=  0.464E-03 retain N=  2 mean eig= 6.11
 eig:   6.114  6.114
 bond charge predicted
       N       E                     dE             d eps       ncg     rms          rms(c)
DAV:   1    -0.445811495063E+03   -0.22796E-02   -0.14203E-03  3160   0.191E-01    0.202E-02
RMM:   2    -0.445811514409E+03   -0.19346E-04   -0.23509E-04  3107   0.794E-02    0.997E-03
RMM:   3    -0.445811514662E+03   -0.25256E-06   -0.16905E-05  1840   0.509E-02    0.512E-03
RMM:   4    -0.445811514279E+03    0.38298E-06   -0.16758E-05  1890   0.519E-02    0.666E-04
RMM:   5    -0.445811514225E+03    0.54049E-07   -0.16078E-05  1733   0.529E-02    0.485E-04
RMM:   6    -0.445811513841E+03    0.38355E-06   -0.13151E-05  1759   0.543E-02    0.418E-04
RMM:   7    -0.445811513745E+03    0.96534E-07   -0.17119E-05  1752   0.561E-02    0.372E-04
RMM:   8    -0.445811513779E+03   -0.33990E-07   -0.18386E-05  1775   0.571E-02    0.335E-04
RMM:   9    -0.445811514047E+03   -0.26801E-06   -0.20941E-05  1774   0.578E-02    0.558E-04
RMM:  10    -0.445811514290E+03   -0.24356E-06   -0.20131E-05  1742   0.577E-02    0.717E-04
RMM:  11    -0.445811514368E+03   -0.77842E-07   -0.17644E-05  1738   0.577E-02    0.838E-04
RMM:  12    -0.445811514587E+03   -0.21844E-06   -0.18593E-05  1742   0.574E-02    0.861E-04
RMM:  13    -0.445811514766E+03   -0.17910E-06   -0.15833E-05  1733   0.561E-02    0.101E-03
RMM:  14    -0.445811515202E+03   -0.43640E-06   -0.18709E-05  1771   0.564E-02    0.108E-03
RMM:  15    -0.445811515623E+03   -0.42091E-06   -0.17503E-05  1767   0.557E-02    0.112E-03
RMM:  16    -0.445811515557E+03    0.65760E-07   -0.12232E-05  1726   0.557E-02    0.106E-03
RMM:  17    -0.445811514989E+03    0.56787E-06   -0.71127E-06  1723   0.562E-02
  11 F= -.23462580E+03 E0= -.23461833E+03  d E =-.559354E-03
 BRION: g(F)=  0.173E-02 g(S)=  0.468E-03
 BRIONS problems: POTIM should be increased
 retain N=  1 mean eig=13.56
 eig:  13.556
 bond charge predicted
       N       E                     dE             d eps       ncg     rms          rms(c)
DAV:   1    -0.445777863579E+03    0.33652E-01   -0.16939E-01  2892   0.222E+00    0.242E-01
RMM:   2    -0.445778990507E+03   -0.11269E-02   -0.17327E-02  3134   0.537E-01    0.111E-01
RMM:   3    -0.445779099384E+03   -0.10888E-03   -0.29318E-03  3215   0.261E-01    0.560E-02
RMM:   4    -0.445779232652E+03   -0.13327E-03   -0.15751E-03  3156   0.186E-01    0.178E-02
RMM:   5    -0.445779298717E+03   -0.66065E-04   -0.68376E-04  2612   0.131E-01    0.133E-02
RMM:   6    -0.445779335891E+03   -0.37174E-04   -0.39566E-04  2350   0.104E-01    0.804E-03
RMM:   7    -0.445779354450E+03   -0.18559E-04   -0.19789E-04  2194   0.846E-02    0.244E-03
RMM:   8    -0.445779363192E+03   -0.87415E-05   -0.10953E-04  2095   0.738E-02    0.307E-03
RMM:   9    -0.445779367853E+03   -0.46613E-05   -0.66431E-05  1996   0.670E-02    0.373E-03
RMM:  10    -0.445779369799E+03   -0.19461E-05   -0.38779E-05  1847   0.637E-02    0.426E-03
RMM:  11    -0.445779371080E+03   -0.12806E-05   -0.33420E-05  1854   0.636E-02    0.403E-03
RMM:  12    -0.445779372149E+03   -0.10692E-05   -0.29825E-05  1896   0.638E-02    0.300E-03
RMM:  13    -0.445779373440E+03   -0.12908E-05   -0.33192E-05  1922   0.636E-02    0.397E-03
WARNING in EDDRMM: call to ZHEGV failed, returncode =   8  4     10
RMM:  14    -0.445779374736E+03   -0.12961E-05   -0.29700E-05  1902   0.613E-02    0.398E-03
RMM:  15    -0.445779375515E+03   -0.77910E-06   -0.24393E-05  1889   0.599E-02    0.411E-03
RMM:  16    -0.445779376282E+03   -0.76742E-06   -0.23706E-05  1890   0.588E-02    0.426E-03
RMM:  17    -0.445779377411E+03   -0.11283E-05   -0.25950E-05  1879   0.576E-02    0.455E-03
WARNING in EDDRMM: call to ZHEGV failed, returncode =   8  4      9
RMM:  18    -0.445779378129E+03   -0.71874E-06   -0.20123E-05  1858   0.559E-02    0.495E-03
RMM:  19    -0.445779378478E+03   -0.34829E-06   -0.17227E-05  1882   0.556E-02    0.520E-03
RMM:  20    -0.445779378479E+03   -0.16880E-08   -0.12410E-05  1865   0.550E-02    0.535E-03
RMM:  21    -0.445779378426E+03    0.53114E-07   -0.11881E-05  1848   0.554E-02    0.540E-03
RMM:  22    -0.445779378661E+03   -0.23478E-06   -0.14241E-05  1893   0.556E-02    0.550E-03
RMM:  23    -0.445779378768E+03   -0.10692E-06   -0.12041E-05  1889   0.551E-02    0.553E-03
RMM:  24    -0.445779378949E+03   -0.18076E-06   -0.12250E-05  1867   0.547E-02    0.559E-03
RMM:  25    -0.445779379293E+03   -0.34425E-06   -0.13471E-05  1910   0.546E-02    0.573E-03
WARNING in EDDRMM: call to ZHEGV failed, returncode =   8  4      9
RMM:  26    -0.445779379424E+03   -0.13136E-06   -0.10688E-05  1889   0.540E-02    0.578E-03
RMM:  27    -0.445779379554E+03   -0.12917E-06   -0.11351E-05  1906   0.546E-02    0.584E-03
RMM:  28    -0.445779379539E+03    0.14395E-07   -0.91610E-06  1909   0.544E-02
  12 F= -.23461953E+03 E0= -.23461281E+03  d E =0.626232E-02
 BRION: g(F)=  0.175E-02 g(S)=  0.357E-03 retain N=  1 mean eig= 7.49
 eig:   7.488
 bond charge predicted
       N       E                     dE             d eps       ncg     rms          rms(c)
DAV:   1    -0.445791407210E+03   -0.12028E-01   -0.24279E-02  3016   0.870E-01    0.956E-02
RMM:   2    -0.445791558025E+03   -0.15081E-03   -0.23457E-03  3147   0.194E-01    0.408E-02
RMM:   3    -0.445791573798E+03   -0.15773E-04   -0.31757E-04  3055   0.896E-02    0.211E-02
RMM:   4    -0.445791582537E+03   -0.87395E-05   -0.12712E-04  2402   0.676E-02    0.419E-03
RMM:   5    -0.445791589598E+03   -0.70611E-05   -0.93630E-05  2040   0.593E-02    0.268E-03
RMM:   6    -0.445791593815E+03   -0.42168E-05   -0.57677E-05  1941   0.538E-02    0.227E-03
RMM:   7    -0.445791596914E+03   -0.30984E-05   -0.46232E-05  1854   0.510E-02    0.769E-04
RMM:   8    -0.445791597674E+03   -0.76075E-06   -0.21941E-05  1778   0.487E-02    0.436E-04
RMM:   9    -0.445791598209E+03   -0.53446E-06   -0.21073E-05  1777   0.493E-02    0.524E-04
RMM:  10    -0.445791598568E+03   -0.35902E-06   -0.18352E-05  1733   0.494E-02    0.773E-04
RMM:  11    -0.445791599079E+03   -0.51163E-06   -0.20584E-05  1719   0.499E-02    0.686E-04
RMM:  12    -0.445791599676E+03   -0.59664E-06   -0.19667E-05  1754   0.493E-02    0.637E-04
RMM:  13    -0.445791600019E+03   -0.34257E-06   -0.16643E-05  1711   0.491E-02    0.638E-04
RMM:  14    -0.445791600137E+03   -0.11804E-06   -0.13589E-05  1707   0.489E-02    0.663E-04
RMM:  15    -0.445791600700E+03   -0.56316E-06   -0.18213E-05  1722   0.494E-02    0.801E-04
WARNING in EDDRMM: call to ZHEGV failed, returncode =   8  4      7
RMM:  16    -0.445791601200E+03   -0.49988E-06   -0.16813E-05  1718   0.491E-02    0.981E-04
RMM:  17    -0.445791601122E+03    0.78122E-07   -0.10612E-05  1692   0.488E-02    0.104E-03
RMM:  18    -0.445791601392E+03   -0.27049E-06   -0.14943E-05  1681   0.496E-02    0.119E-03
RMM:  19    -0.445791601475E+03   -0.83401E-07   -0.11492E-05  1660   0.490E-02    0.116E-03
RMM:  20    -0.445791601240E+03    0.23549E-06   -0.87724E-06  1646   0.495E-02
  13 F= -.23462189E+03 E0= -.23461490E+03  d E =-.235271E-02
 BRION: g(F)=  0.164E-02 g(S)=  0.438E-03 retain N=  1 mean eig= 1.52
 eig:   1.520
 bond charge predicted
       N       E                     dE             d eps       ncg     rms          rms(c)
DAV:   1    -0.445802744422E+03   -0.11143E-01   -0.29078E-02  2864   0.976E-01    0.878E-02
RMM:   2    -0.445803029456E+03   -0.28503E-03   -0.36470E-03  3149   0.265E-01    0.443E-02
RMM:   3    -0.445803073856E+03   -0.44400E-04   -0.73471E-04  3125   0.140E-01    0.221E-02
RMM:   4    -0.445803102609E+03   -0.28753E-04   -0.34091E-04  2674   0.103E-01    0.772E-03
RMM:   5    -0.445803120230E+03   -0.17621E-04   -0.20664E-04  2331   0.838E-02    0.565E-03
RMM:   6    -0.445803131283E+03   -0.11053E-04   -0.13501E-04  2160   0.706E-02    0.430E-03
RMM:   7    -0.445803136390E+03   -0.51071E-05   -0.73080E-05  1974   0.609E-02    0.380E-03
RMM:   8    -0.445803139486E+03   -0.30964E-05   -0.44547E-05  1918   0.573E-02    0.206E-03
RMM:   9    -0.445803140203E+03   -0.71691E-06   -0.24098E-05  1812   0.561E-02    0.239E-03
RMM:  10    -0.445803140480E+03   -0.27665E-06   -0.21173E-05  1848   0.570E-02    0.251E-03
RMM:  11    -0.445803141231E+03   -0.75119E-06   -0.25733E-05  1906   0.576E-02    0.263E-03
RMM:  12    -0.445803141400E+03   -0.16857E-06   -0.18010E-05  1815   0.563E-02    0.267E-03
RMM:  13    -0.445803141301E+03    0.99219E-07   -0.16795E-05  1829   0.569E-02    0.263E-03
RMM:  14    -0.445803142184E+03   -0.88313E-06   -0.26496E-05  1850   0.575E-02    0.292E-03
WARNING in EDDRMM: call to ZHEGV failed, returncode =   8  4      6
RMM:  15    -0.445803143225E+03   -0.10410E-05   -0.25450E-05  1840   0.561E-02    0.319E-03
RMM:  16    -0.445803144194E+03   -0.96933E-06   -0.23978E-05  1824   0.553E-02    0.371E-03
RMM:  17    -0.445803145665E+03   -0.14706E-05   -0.27681E-05  1887   0.544E-02    0.416E-03
WARNING in EDDRMM: call to ZHEGV failed, returncode =   8  4      8
RMM:  18    -0.445803146411E+03   -0.74672E-06   -0.18094E-05  1854   0.518E-02    0.447E-03
WARNING in EDDRMM: call to ZHEGV failed, returncode =   8  4     10
RMM:  19    -0.445803146242E+03    0.16949E-06   -0.84495E-06  1806   0.506E-02
  14 F= -.23462443E+03 E0= -.23461718E+03  d E =-.254106E-02
 BRION: g(F)=  0.165E-02 g(S)=  0.445E-03
 BRIONS problems: POTIM should be increased
 retain N=  1 mean eig= 8.37
 eig:   8.371
 bond charge predicted
       N       E                     dE             d eps       ncg     rms          rms(c)
DAV:   1    -0.445800896536E+03    0.22499E-02   -0.14510E-03  3208   0.233E-01    0.235E-02
RMM:   2    -0.445800901175E+03   -0.46394E-05   -0.96681E-05  3130   0.338E-02    0.118E-02
RMM:   3    -0.445800899414E+03    0.17618E-05   -0.12170E-06  1775   0.107E-02    0.534E-03
RMM:   4    -0.445800898930E+03    0.48318E-06   -0.24434E-06  1937   0.112E-02
  15 F= -.23462392E+03 E0= -.23461674E+03  d E =0.504768E-03
 BRION: g(F)=  0.165E-02 g(S)=  0.429E-03
 BRIONS problems: POTIM should be increased
 retain N=  1 mean eig= 8.05
 eig:   8.051
 bond charge predicted
       N       E                     dE             d eps       ncg     rms          rms(c)
DAV:   1    -0.445798984011E+03    0.19154E-02   -0.37836E-04  2744   0.710E-02    0.160E-02
RMM:   2    -0.445798984361E+03   -0.35003E-06   -0.20373E-05  2599   0.173E-02    0.529E-03
RMM:   3    -0.445798983918E+03    0.44289E-06   -0.15400E-06  1551   0.996E-03
  16 F= -.23462395E+03 E0= -.23461674E+03  d E =-.278129E-04
 BRION: g(F)=  0.159E-02 g(S)=  0.486E-03 retain N=  1 mean eig= 0.67
 eig:   0.670
 bond charge predicted
       N       E                     dE             d eps       ncg     rms          rms(c)
DAV:   1    -0.445809829704E+03   -0.10845E-01   -0.32935E-02  2928   0.109E+00    0.888E-02
RMM:   2    -0.445810138136E+03   -0.30843E-03   -0.39223E-03  3129   0.266E-01    0.476E-02
RMM:   3    -0.445810172906E+03   -0.34770E-04   -0.68250E-04  3097   0.134E-01    0.223E-02
RMM:   4    -0.445810202154E+03   -0.29248E-04   -0.34627E-04  2638   0.993E-02    0.777E-03
RMM:   5    -0.445810219007E+03   -0.16853E-04   -0.19486E-04  2283   0.795E-02    0.561E-03
RMM:   6    -0.445810229523E+03   -0.10516E-04   -0.12650E-04  2105   0.676E-02    0.360E-03
RMM:   7    -0.445810233449E+03   -0.39259E-05   -0.58836E-05  1962   0.592E-02    0.906E-04
RMM:   8    -0.445810235021E+03   -0.15725E-05   -0.31007E-05  1878   0.559E-02    0.120E-03
RMM:   9    -0.445810235653E+03   -0.63164E-06   -0.24432E-05  1820   0.556E-02    0.963E-04
RMM:  10    -0.445810235750E+03   -0.96865E-07   -0.19845E-05  1824   0.561E-02    0.426E-04
RMM:  11    -0.445810236303E+03   -0.55335E-06   -0.23246E-05  1866   0.564E-02    0.799E-04
RMM:  12    -0.445810237117E+03   -0.81400E-06   -0.24594E-05  1835   0.554E-02    0.793E-04
RMM:  13    -0.445810237185E+03   -0.67797E-07   -0.16325E-05  1794   0.545E-02    0.524E-04
RMM:  14    -0.445810237801E+03   -0.61568E-06   -0.22312E-05  1820   0.557E-02    0.956E-04
RMM:  15    -0.445810238564E+03   -0.76361E-06   -0.22021E-05  1841   0.552E-02    0.143E-03
WARNING in EDDRMM: call to ZHEGV failed, returncode =   8  4      9
RMM:  16    -0.445810238998E+03   -0.43343E-06   -0.19088E-05  1811   0.548E-02    0.118E-03
RMM:  17    -0.445810239175E+03   -0.17738E-06   -0.17032E-05  1792   0.548E-02    0.816E-04
RMM:  18    -0.445810239516E+03   -0.34140E-06   -0.17911E-05  1818   0.549E-02    0.738E-04
RMM:  19    -0.445810239505E+03    0.11802E-07   -0.13467E-05  1828   0.542E-02    0.668E-04
RMM:  20    -0.445810239749E+03   -0.24451E-06   -0.15586E-05  1827   0.540E-02    0.655E-04
RMM:  21    -0.445810239530E+03    0.21905E-06   -0.93552E-06  1799   0.528E-02
  17 F= -.23462660E+03 E0= -.23461914E+03  d E =-.265012E-02
 BRION: g(F)=  0.170E-02 g(S)=  0.449E-03
 BRIONS problems: POTIM should be increased
 retain N=  1 mean eig= 8.86
 eig:   8.857
 bond charge predicted
       N       E                     dE             d eps       ncg     rms          rms(c)
DAV:   1    -0.445806082043E+03    0.41577E-02   -0.64887E-03  3144   0.500E-01    0.408E-02
RMM:   2    -0.445806121274E+03   -0.39231E-04   -0.57175E-04  3119   0.902E-02    0.196E-02
RMM:   3    -0.445806117739E+03    0.35343E-05   -0.32992E-05  2562   0.359E-02    0.946E-03
RMM:   4    -0.445806117979E+03   -0.23965E-06   -0.21597E-05  2262   0.316E-02    0.151E-03
RMM:   5    -0.445806117818E+03    0.16108E-06   -0.59635E-06  1638   0.286E-02
  18 F= -.23462550E+03 E0= -.23461815E+03  d E =0.110552E-02
 BRION: g(F)=  0.170E-02 g(S)=  0.431E-03
 BRIONS problems: POTIM should be increased
 retain N=  1 mean eig=11.18
 eig:  11.176
 bond charge predicted
       N       E                     dE             d eps       ncg     rms          rms(c)
DAV:   1    -0.445811335181E+03   -0.52172E-02   -0.17861E-03  2696   0.148E-01    0.333E-02
RMM:   2    -0.445811337732E+03   -0.25510E-05   -0.11614E-04  3110   0.321E-02    0.127E-02
RMM:   3    -0.445811335187E+03    0.25444E-05   -0.58850E-07  1772   0.110E-02    0.725E-03
RMM:   4    -0.445811335082E+03    0.10497E-06   -0.28454E-06  2019   0.123E-02
  19 F= -.23462609E+03 E0= -.23461866E+03  d E =-.598775E-03
 BRION: g(F)=  0.164E-02 g(S)=  0.505E-03 retain N=  1 mean eig= 1.09
 eig:   1.095
 bond charge predicted
       N       E                     dE             d eps       ncg     rms          rms(c)
DAV:   1    -0.445821161827E+03   -0.98266E-02   -0.27226E-02  2936   0.938E-01    0.882E-02
RMM:   2    -0.445821386915E+03   -0.22509E-03   -0.30408E-03  3142   0.234E-01    0.435E-02
RMM:   3    -0.445821414830E+03   -0.27915E-04   -0.52130E-04  3103   0.118E-01    0.216E-02
RMM:   4    -0.445821435747E+03   -0.20916E-04   -0.25737E-04  2575   0.882E-02    0.650E-03
WARNING in EDDRMM: call to ZHEGV failed, returncode =   8  4     21
RMM:   5    -0.445821446532E+03   -0.10785E-04   -0.13141E-04  2178   0.725E-02    0.426E-03
RMM:   6    -0.445821453005E+03   -0.64727E-05   -0.87788E-05  2023   0.646E-02    0.234E-03
RMM:   7    -0.445821456691E+03   -0.36863E-05   -0.56373E-05  1933   0.596E-02    0.462E-04
RMM:   8    -0.445821458771E+03   -0.20802E-05   -0.40035E-05  1885   0.572E-02    0.926E-04
RMM:   9    -0.445821459104E+03   -0.33249E-06   -0.21069E-05  1779   0.559E-02    0.143E-03
RMM:  10    -0.445821459818E+03   -0.71457E-06   -0.27172E-05  1842   0.572E-02    0.140E-03
RMM:  11    -0.445821460272E+03   -0.45394E-06   -0.23514E-05  1852   0.573E-02    0.136E-03
RMM:  12    -0.445821461258E+03   -0.98623E-06   -0.27268E-05  1849   0.568E-02    0.170E-03
RMM:  13    -0.445821461459E+03   -0.20093E-06   -0.18461E-05  1805   0.557E-02    0.169E-03
RMM:  14    -0.445821462246E+03   -0.78640E-06   -0.24458E-05  1825   0.560E-02    0.172E-03
WARNING in EDDRMM: call to ZHEGV failed, returncode =   8  4     11
RMM:  15    -0.445821463458E+03   -0.12128E-05   -0.27005E-05  1839   0.552E-02    0.206E-03
RMM:  16    -0.445821464045E+03   -0.58689E-06   -0.18832E-05  1794   0.537E-02    0.227E-03
RMM:  17    -0.445821464203E+03   -0.15800E-06   -0.14810E-05  1813   0.540E-02    0.246E-03
RMM:  18    -0.445821464387E+03   -0.18343E-06   -0.15203E-05  1786   0.543E-02    0.255E-03
RMM:  19    -0.445821464638E+03   -0.25143E-06   -0.15546E-05  1839   0.543E-02    0.263E-03
RMM:  20    -0.445821464593E+03    0.45089E-07   -0.11744E-05  1833   0.536E-02    0.265E-03
RMM:  21    -0.445821464518E+03    0.74870E-07   -0.11264E-05  1808   0.535E-02    0.262E-03
RMM:  22    -0.445821464854E+03   -0.33621E-06   -0.15831E-05  1825   0.540E-02    0.267E-03
RMM:  23    -0.445821464867E+03   -0.12587E-07   -0.11256E-05  1811   0.531E-02    0.261E-03
RMM:  24    -0.445821465065E+03   -0.19780E-06   -0.13218E-05  1827   0.536E-02    0.276E-03
RMM:  25    -0.445821465362E+03   -0.29673E-06   -0.13790E-05  1858   0.531E-02    0.288E-03
WARNING in EDDRMM: call to ZHEGV failed, returncode =   8  4     12
RMM:  26    -0.445821465638E+03   -0.27661E-06   -0.12927E-05  1877   0.527E-02    0.292E-03
RMM:  27    -0.445821465837E+03   -0.19875E-06   -0.11078E-05  1867   0.517E-02    0.298E-03
RMM:  28    -0.445821466151E+03   -0.31382E-06   -0.12299E-05  1880   0.519E-02    0.311E-03
RMM:  29    -0.445821466246E+03   -0.94922E-07   -0.91422E-06  1844   0.512E-02
  20 F= -.23462854E+03 E0= -.23462087E+03  d E =-.244612E-02
 BRION: g(F)=  0.170E-02 g(S)=  0.503E-03
 BRIONS problems: POTIM should be increased
 retain N=  1 mean eig=10.98
 eig:  10.980
 bond charge predicted
       N       E                     dE             d eps       ncg     rms          rms(c)
DAV:   1    -0.445806290620E+03    0.15176E-01   -0.46499E-02  2924   0.121E+00    0.126E-01
RMM:   2    -0.445806598232E+03   -0.30761E-03   -0.47570E-03  3140   0.279E-01    0.562E-02
RMM:   3    -0.445806626936E+03   -0.28704E-04   -0.71133E-04  3129   0.132E-01    0.288E-02
RMM:   4    -0.445806655262E+03   -0.28327E-04   -0.36892E-04  2866   0.972E-02    0.772E-03
RMM:   5    -0.445806673153E+03   -0.17891E-04   -0.19967E-04  2154   0.761E-02    0.563E-03
RMM:   6    -0.445806682161E+03   -0.90081E-05   -0.10818E-04  2045   0.651E-02    0.371E-03
RMM:   7    -0.445806686628E+03   -0.44671E-05   -0.61013E-05  1939   0.587E-02    0.107E-03
RMM:   8    -0.445806688503E+03   -0.18750E-05   -0.37791E-05  1844   0.561E-02    0.109E-03
RMM:   9    -0.445806689442E+03   -0.93865E-06   -0.27645E-05  1813   0.555E-02    0.135E-03
RMM:  10    -0.445806690206E+03   -0.76409E-06   -0.26854E-05  1849   0.560E-02    0.161E-03
RMM:  11    -0.445806690992E+03   -0.78595E-06   -0.26460E-05  1825   0.559E-02    0.188E-03
RMM:  12    -0.445806691439E+03   -0.44695E-06   -0.21114E-05  1789   0.554E-02    0.187E-03
RMM:  13    -0.445806691916E+03   -0.47740E-06   -0.21108E-05  1807   0.550E-02    0.188E-03
RMM:  14    -0.445806693097E+03   -0.11811E-05   -0.27370E-05  1845   0.546E-02    0.220E-03
RMM:  15    -0.445806693963E+03   -0.86572E-06   -0.22601E-05  1825   0.531E-02    0.230E-03
RMM:  16    -0.445806694598E+03   -0.63526E-06   -0.19639E-05  1820   0.523E-02    0.257E-03
RMM:  17    -0.445806695314E+03   -0.71539E-06   -0.19733E-05  1813   0.516E-02    0.267E-03
RMM:  18    -0.445806695871E+03   -0.55753E-06   -0.17163E-05  1802   0.505E-02    0.261E-03
RMM:  19    -0.445806695725E+03    0.14633E-06   -0.97534E-06  1772   0.499E-02
  21 F= -.23462531E+03 E0= -.23461799E+03  d E =0.323269E-02
 BRION: g(F)=  0.172E-02 g(S)=  0.420E-03 retain N=  1 mean eig= 6.01
 eig:   6.009
 bond charge predicted
       N       E                     dE             d eps       ncg     rms          rms(c)
DAV:   1    -0.445814226682E+03   -0.75308E-02   -0.10294E-02  2804   0.528E-01    0.674E-02
RMM:   2    -0.445814278446E+03   -0.51764E-04   -0.93092E-04  3135   0.119E-01    0.268E-02
RMM:   3    -0.445814278318E+03    0.12765E-06   -0.73401E-05  2615   0.535E-02    0.146E-02
RMM:   4    -0.445814280454E+03   -0.21360E-05   -0.46369E-05  2408   0.467E-02    0.215E-03
RMM:   5    -0.445814281514E+03   -0.10593E-05   -0.26724E-05  1767   0.422E-02    0.130E-03
RMM:   6    -0.445814282807E+03   -0.12935E-05   -0.28244E-05  1750   0.421E-02    0.768E-04
RMM:   7    -0.445814284207E+03   -0.14002E-05   -0.26641E-05  1777   0.418E-02    0.926E-04
RMM:   8    -0.445814284592E+03   -0.38450E-06   -0.16488E-05  1739   0.414E-02    0.122E-03
RMM:   9    -0.445814285194E+03   -0.60198E-06   -0.18254E-05  1741   0.422E-02    0.759E-04
RMM:  10    -0.445814285642E+03   -0.44843E-06   -0.16112E-05  1723   0.425E-02    0.408E-04
RMM:  11    -0.445814286089E+03   -0.44643E-06   -0.15325E-05  1725   0.426E-02    0.539E-04
RMM:  12    -0.445814286840E+03   -0.75113E-06   -0.18402E-05  1741   0.433E-02    0.915E-04
RMM:  13    -0.445814286605E+03    0.23427E-06   -0.69501E-06  1654   0.424E-02
  22 F= -.23462682E+03 E0= -.23461932E+03  d E =-.151009E-02
 BRION: g(F)=  0.164E-02 g(S)=  0.510E-03 retain N=  1 mean eig= 1.58
 eig:   1.582
 bond charge predicted
       N       E                     dE             d eps       ncg     rms          rms(c)
DAV:   1    -0.445823390723E+03   -0.91039E-02   -0.22784E-02  2964   0.840E-01    0.813E-02
RMM:   2    -0.445823598148E+03   -0.20742E-03   -0.27692E-03  3142   0.231E-01    0.397E-02
RMM:   3    -0.445823632162E+03   -0.34014E-04   -0.55035E-04  3125   0.121E-01    0.203E-02
RMM:   4    -0.445823653141E+03   -0.20979E-04   -0.25693E-04  2546   0.906E-02    0.655E-03
RMM:   5    -0.445823665829E+03   -0.12688E-04   -0.15436E-04  2234   0.755E-02    0.454E-03
RMM:   6    -0.445823674493E+03   -0.86640E-05   -0.11005E-04  2066   0.660E-02    0.332E-03
RMM:   7    -0.445823678664E+03   -0.41706E-05   -0.60425E-05  1966   0.590E-02    0.216E-03
RMM:   8    -0.445823681262E+03   -0.25977E-05   -0.41625E-05  1890   0.558E-02    0.151E-03
RMM:   9    -0.445823682240E+03   -0.97842E-06   -0.25498E-05  1833   0.546E-02    0.272E-03
RMM:  10    -0.445823682161E+03    0.78846E-07   -0.16535E-05  1773   0.545E-02    0.219E-03
RMM:  11    -0.445823682416E+03   -0.25459E-06   -0.21281E-05  1853   0.560E-02    0.148E-03
RMM:  12    -0.445823682825E+03   -0.40913E-06   -0.21249E-05  1855   0.559E-02    0.140E-03
RMM:  13    -0.445823683288E+03   -0.46340E-06   -0.20867E-05  1813   0.554E-02    0.149E-03
RMM:  14    -0.445823683975E+03   -0.68697E-06   -0.21826E-05  1793   0.549E-02    0.174E-03
RMM:  15    -0.445823684668E+03   -0.69225E-06   -0.21524E-05  1813   0.550E-02    0.185E-03
RMM:  16    -0.445823685055E+03   -0.38777E-06   -0.18313E-05  1821   0.549E-02    0.202E-03
RMM:  17    -0.445823685155E+03   -0.99983E-07   -0.15922E-05  1801   0.553E-02    0.204E-03
RMM:  18    -0.445823685644E+03   -0.48857E-06   -0.18835E-05  1853   0.553E-02    0.227E-03
RMM:  19    -0.445823685929E+03   -0.28530E-06   -0.15892E-05  1799   0.542E-02    0.232E-03
WARNING in EDDRMM: call to ZHEGV failed, returncode =   8  4     10
RMM:  20    -0.445823686037E+03   -0.10833E-06   -0.13813E-05  1821   0.538E-02    0.232E-03
WARNING in EDDRMM: call to ZHEGV failed, returncode =   8  4     12
RMM:  21    -0.445823685842E+03    0.19515E-06   -0.10364E-05  1824   0.535E-02    0.218E-03
WARNING in EDDRMM: call to ZHEGV failed, returncode =   8  4     12
RMM:  22    -0.445823685858E+03   -0.15621E-07   -0.12660E-05  1803   0.536E-02    0.219E-03
RMM:  23    -0.445823686196E+03   -0.33823E-06   -0.15956E-05  1823   0.542E-02    0.238E-03
RMM:  24    -0.445823686569E+03   -0.37248E-06   -0.15475E-05  1845   0.540E-02    0.258E-03
RMM:  25    -0.445823686830E+03   -0.26142E-06   -0.13855E-05  1858   0.531E-02    0.262E-03
RMM:  26    -0.445823687048E+03   -0.21783E-06   -0.12363E-05  1841   0.521E-02    0.266E-03
WARNING in EDDRMM: call to ZHEGV failed, returncode =   8  4     12
RMM:  27    -0.445823687083E+03   -0.34946E-07   -0.10303E-05  1830   0.517E-02    0.269E-03
RMM:  28    -0.445823687284E+03   -0.20151E-06   -0.11753E-05  1852   0.520E-02    0.268E-03
WARNING in EDDRMM: call to ZHEGV failed, returncode =   8  4     10
RMM:  29    -0.445823687587E+03   -0.30264E-06   -0.12008E-05  1876   0.518E-02    0.279E-03
RMM:  30    -0.445823687569E+03    0.17739E-07   -0.84026E-06  1844   0.514E-02
  23 F= -.23462907E+03 E0= -.23462135E+03  d E =-.224778E-02
 BRION: g(F)=  0.169E-02 g(S)=  0.520E-03 retain N=  1 mean eig= 5.01
 eig:   5.009
 bond charge predicted
       N       E                     dE             d eps       ncg     rms          rms(c)
DAV:   1    -0.445789669827E+03    0.34018E-01   -0.16324E-01  2872   0.224E+00    0.233E-01
RMM:   2    -0.445790815575E+03   -0.11457E-02   -0.17269E-02  3132   0.538E-01    0.108E-01
RMM:   3    -0.445790948373E+03   -0.13280E-03   -0.29995E-03  3217   0.262E-01    0.550E-02
RMM:   4    -0.445791082920E+03   -0.13455E-03   -0.15716E-03  3150   0.185E-01    0.184E-02
RMM:   5    -0.445791147478E+03   -0.64558E-04   -0.66351E-04  2615   0.130E-01    0.139E-02
RMM:   6    -0.445791182916E+03   -0.35438E-04   -0.37435E-04  2355   0.102E-01    0.787E-03
RMM:   7    -0.445791199074E+03   -0.16157E-04   -0.17422E-04  2201   0.824E-02    0.220E-03
RMM:   8    -0.445791207401E+03   -0.83278E-05   -0.10584E-04  2094   0.728E-02    0.278E-03
RMM:   9    -0.445791211323E+03   -0.39215E-05   -0.58365E-05  1954   0.656E-02    0.399E-03
RMM:  10    -0.445791213073E+03   -0.17501E-05   -0.39175E-05  1883   0.632E-02    0.609E-03
RMM:  11    -0.445791214127E+03   -0.10544E-05   -0.32214E-05  1851   0.631E-02    0.530E-03
RMM:  12    -0.445791215254E+03   -0.11265E-05   -0.31262E-05  1888   0.629E-02    0.341E-03
RMM:  13    -0.445791216299E+03   -0.10450E-05   -0.30067E-05  1893   0.622E-02    0.302E-03
RMM:  14    -0.445791217419E+03   -0.11202E-05   -0.28001E-05  1868   0.606E-02    0.267E-03
RMM:  15    -0.445791218524E+03   -0.11046E-05   -0.28796E-05  1943   0.603E-02    0.294E-03
RMM:  16    -0.445791219589E+03   -0.10657E-05   -0.26082E-05  1899   0.582E-02    0.286E-03
RMM:  17    -0.445791220474E+03   -0.88436E-06   -0.22031E-05  1860   0.560E-02    0.294E-03
RMM:  18    -0.445791220780E+03   -0.30634E-06   -0.16227E-05  1818   0.552E-02    0.320E-03
RMM:  19    -0.445791221180E+03   -0.39972E-06   -0.18242E-05  1883   0.557E-02    0.450E-03
RMM:  20    -0.445791221049E+03    0.13049E-06   -0.10692E-05  1854   0.548E-02    0.445E-03
RMM:  21    -0.445791221296E+03   -0.24710E-06   -0.15464E-05  1869   0.557E-02    0.459E-03
RMM:  22    -0.445791221753E+03   -0.45702E-06   -0.15855E-05  1890   0.552E-02    0.479E-03
RMM:  23    -0.445791221828E+03   -0.74593E-07   -0.11287E-05  1887   0.547E-02    0.477E-03
RMM:  24    -0.445791221864E+03   -0.35856E-07   -0.10950E-05  1861   0.542E-02    0.484E-03
RMM:  25    -0.445791221729E+03    0.13439E-06   -0.89894E-06  1882   0.542E-02
  24 F= -.23462284E+03 E0= -.23461583E+03  d E =0.622330E-02
 BRION: g(F)=  0.165E-02 g(S)=  0.410E-03
 BRIONS problems: POTIM should be increased
 retain N=  1 mean eig= 8.34
 eig:   8.339
 bond charge predicted
       N       E                     dE             d eps       ncg     rms          rms(c)
DAV:   1    -0.445759050565E+03    0.32171E-01   -0.21291E-01  2956   0.253E+00    0.259E-01
RMM:   2    -0.445760765439E+03   -0.17149E-02   -0.24069E-02  3142   0.661E-01    0.126E-01
RMM:   3    -0.445761015951E+03   -0.25051E-03   -0.47751E-03  3231   0.339E-01    0.626E-02
RMM:   4    -0.445761244384E+03   -0.22843E-03   -0.25624E-03  3174   0.242E-01    0.249E-02
RMM:   5    -0.445761353133E+03   -0.10875E-03   -0.11196E-03  2938   0.167E-01    0.192E-02
RMM:   6    -0.445761414092E+03   -0.60959E-04   -0.62690E-04  2555   0.125E-01    0.865E-03
RMM:   7    -0.445761440621E+03   -0.26529E-04   -0.27986E-04  2330   0.962E-02    0.158E-03
RMM:   8    -0.445761455030E+03   -0.14408E-04   -0.16404E-04  2194   0.807E-02    0.360E-03
RMM:   9    -0.445761461807E+03   -0.67775E-05   -0.85831E-05  2036   0.701E-02    0.205E-03
RMM:  10    -0.445761464840E+03   -0.30325E-05   -0.51734E-05  1937   0.655E-02    0.393E-03
RMM:  11    -0.445761466681E+03   -0.18417E-05   -0.35749E-05  1929   0.641E-02    0.510E-03
RMM:  12    -0.445761466608E+03    0.72811E-07   -0.22821E-05  1839   0.629E-02    0.324E-03
RMM:  13    -0.445761467298E+03   -0.68995E-06   -0.29101E-05  1875   0.640E-02    0.362E-03
RMM:  14    -0.445761468492E+03   -0.11934E-05   -0.32606E-05  1921   0.636E-02    0.391E-03
RMM:  15    -0.445761469769E+03   -0.12770E-05   -0.31528E-05  1934   0.621E-02    0.435E-03
RMM:  16    -0.445761470756E+03   -0.98742E-06   -0.26220E-05  1876   0.596E-02    0.465E-03
RMM:  17    -0.445761472322E+03   -0.15653E-05   -0.31050E-05  1924   0.584E-02    0.510E-03
RMM:  18    -0.445761473434E+03   -0.11127E-05   -0.23514E-05  1883   0.557E-02    0.519E-03
WARNING in EDDRMM: call to ZHEGV failed, returncode =   8  4      6
WARNING in EDDRMM: call to ZHEGV failed, returncode =   8  4     12
RMM:  19    -0.445761473689E+03   -0.25445E-06   -0.14816E-05  1896   0.548E-02    0.522E-03
RMM:  20    -0.445761473877E+03   -0.18874E-06   -0.14561E-05  1860   0.549E-02    0.523E-03
RMM:  21    -0.445761473905E+03   -0.27307E-07   -0.11631E-05  1864   0.546E-02    0.544E-03
RMM:  22    -0.445761473929E+03   -0.24254E-07   -0.12145E-05  1868   0.553E-02    0.550E-03
RMM:  23    -0.445761474221E+03   -0.29181E-06   -0.14492E-05  1898   0.555E-02    0.561E-03
WARNING in EDDRMM: call to ZHEGV failed, returncode =   8  4     11
RMM:  24    -0.445761474286E+03   -0.65280E-07   -0.10462E-05  1876   0.545E-02    0.534E-03
RMM:  25    -0.445761474573E+03   -0.28696E-06   -0.12816E-05  1904   0.548E-02    0.537E-03
RMM:  26    -0.445761474601E+03   -0.28220E-07   -0.99914E-06  1906   0.548E-02
  25 F= -.23461632E+03 E0= -.23461022E+03  d E =0.651964E-02
 BRION: g(F)=  0.156E-02 g(S)=  0.456E-03 retain N=  1 mean eig= 5.56
 eig:   5.557
 bond charge predicted
       N       E                     dE             d eps       ncg     rms          rms(c)
DAV:   1    -0.445743928322E+03    0.17546E-01   -0.81848E-02  3056   0.136E+00    0.172E-01
RMM:   2    -0.445744489257E+03   -0.56093E-03   -0.84886E-03  3141   0.403E-01    0.824E-02
RMM:   3    -0.445744576722E+03   -0.87466E-04   -0.18704E-03  3190   0.218E-01    0.400E-02
RMM:   4    -0.445744662224E+03   -0.85501E-04   -0.97297E-04  3016   0.158E-01    0.154E-02
RMM:   5    -0.445744703588E+03   -0.41365E-04   -0.43765E-04  2471   0.115E-01    0.111E-02
RMM:   6    -0.445744728887E+03   -0.25299E-04   -0.27181E-04  2284   0.941E-02    0.418E-03
RMM:   7    -0.445744739154E+03   -0.10267E-04   -0.11973E-04  2126   0.777E-02    0.113E-03
RMM:   8    -0.445744743876E+03   -0.47220E-05   -0.68479E-05  1993   0.707E-02    0.157E-03
RMM:   9    -0.445744745951E+03   -0.20755E-05   -0.42711E-05  1952   0.678E-02    0.794E-04
RMM:  10    -0.445744746987E+03   -0.10361E-05   -0.35501E-05  1908   0.663E-02    0.364E-03
RMM:  11    -0.445744747512E+03   -0.52455E-06   -0.27161E-05  1873   0.657E-02    0.605E-03
RMM:  12    -0.445744748593E+03   -0.10810E-05   -0.33980E-05  1883   0.656E-02    0.143E-03
RMM:  13    -0.445744749376E+03   -0.78255E-06   -0.27550E-05  1908   0.644E-02    0.155E-03
RMM:  14    -0.445744750489E+03   -0.11138E-05   -0.30151E-05  1894   0.632E-02    0.167E-03
RMM:  15    -0.445744752433E+03   -0.19440E-05   -0.36135E-05  1921   0.614E-02    0.238E-03
WARNING in EDDRMM: call to ZHEGV failed, returncode =   8  4     12
RMM:  16    -0.445744753325E+03   -0.89182E-06   -0.22796E-05  1896   0.585E-02    0.266E-03
RMM:  17    -0.445744754390E+03   -0.10648E-05   -0.24592E-05  1938   0.585E-02    0.299E-03
RMM:  18    -0.445744754815E+03   -0.42516E-06   -0.16021E-05  1892   0.566E-02    0.320E-03
RMM:  19    -0.445744755145E+03   -0.32963E-06   -0.14779E-05  1864   0.563E-02    0.337E-03
RMM:  20    -0.445744755051E+03    0.93529E-07   -0.10763E-05  1877   0.566E-02    0.336E-03
RMM:  21    -0.445744755070E+03   -0.18586E-07   -0.12215E-05  1897   0.576E-02    0.336E-03
RMM:  22    -0.445744754969E+03    0.10107E-06   -0.10758E-05  1903   0.573E-02    0.327E-03
RMM:  23    -0.445744755029E+03   -0.59648E-07   -0.12181E-05  1918   0.576E-02    0.314E-03
RMM:  24    -0.445744755333E+03   -0.30435E-06   -0.13790E-05  1956   0.568E-02    0.310E-03
RMM:  25    -0.445744755456E+03   -0.12351E-06   -0.11347E-05  1911   0.560E-02    0.309E-03
RMM:  26    -0.445744755549E+03   -0.92703E-07   -0.11553E-05  1892   0.563E-02    0.305E-03
RMM:  27    -0.445744755701E+03   -0.15225E-06   -0.11828E-05  1941   0.563E-02    0.314E-03
RMM:  28    -0.445744756176E+03   -0.47457E-06   -0.14459E-05  1953   0.562E-02    0.332E-03
RMM:  29    -0.445744756269E+03   -0.93369E-07   -0.99169E-06  1930   0.556E-02
  26 F= -.23461236E+03 E0= -.23460677E+03  d E =0.396023E-02
 BRION: g(F)=  0.167E-02 g(S)=  0.500E-03 retain N=  2 mean eig= 6.14
 eig:   7.312  4.963
 bond charge predicted
       N       E                     dE             d eps       ncg     rms          rms(c)
DAV:   1    -0.445801300128E+03   -0.56544E-01   -0.11000E+00  2880   0.541E+00    0.615E-01
RMM:   2    -0.445808450697E+03   -0.71506E-02   -0.10802E-01  3137   0.138E+00    0.299E-01
RMM:   3    -0.445809330180E+03   -0.87948E-03   -0.20896E-02  3231   0.695E-01    0.143E-01
RMM:   4    -0.445810351053E+03   -0.10209E-02   -0.11501E-02  3220   0.493E-01    0.503E-02
RMM:   5    -0.445810807941E+03   -0.45689E-03   -0.47050E-03  3191   0.334E-01    0.392E-02
RMM:   6    -0.445811067939E+03   -0.26000E-03   -0.26995E-03  2973   0.244E-01    0.242E-02
RMM:   7    -0.445811182827E+03   -0.11489E-03   -0.12220E-03  2680   0.176E-01    0.700E-03
RMM:   8    -0.445811252164E+03   -0.69337E-04   -0.72263E-04  2443   0.137E-01    0.113E-02
RMM:   9    -0.445811283033E+03   -0.30869E-04   -0.34001E-04  2308   0.107E-01    0.586E-03
RMM:  10    -0.445811300372E+03   -0.17338E-04   -0.19734E-04  2195   0.911E-02    0.565E-03
RMM:  11    -0.445811307370E+03   -0.69982E-05   -0.98548E-05  2101   0.796E-02    0.134E-03
RMM:  12    -0.445811313076E+03   -0.57064E-05   -0.81134E-05  2097   0.743E-02    0.300E-03
RMM:  13    -0.445811315125E+03   -0.20489E-05   -0.44902E-05  1939   0.690E-02    0.937E-04
RMM:  14    -0.445811316688E+03   -0.15623E-05   -0.37481E-05  1948   0.675E-02    0.293E-03
RMM:  15    -0.445811318710E+03   -0.20228E-05   -0.41548E-05  1974   0.665E-02    0.388E-03
RMM:  16    -0.445811320194E+03   -0.14832E-05   -0.33239E-05  1963   0.640E-02    0.449E-03
RMM:  17    -0.445811321348E+03   -0.11547E-05   -0.28741E-05  1940   0.625E-02    0.470E-03
RMM:  18    -0.445811322383E+03   -0.10351E-05   -0.26796E-05  2002   0.616E-02    0.498E-03
RMM:  19    -0.445811323718E+03   -0.13350E-05   -0.27523E-05  1971   0.600E-02    0.560E-03
RMM:  20    -0.445811324280E+03   -0.56114E-06   -0.18961E-05  1908   0.582E-02    0.580E-03
RMM:  21    -0.445811324683E+03   -0.40313E-06   -0.17146E-05  1925   0.582E-02    0.586E-03
RMM:  22    -0.445811324971E+03   -0.28787E-06   -0.15223E-05  1926   0.582E-02    0.591E-03
RMM:  23    -0.445811325311E+03   -0.34012E-06   -0.15335E-05  1924   0.581E-02    0.603E-03
RMM:  24    -0.445811325537E+03   -0.22608E-06   -0.13845E-05  1935   0.578E-02    0.604E-03
RMM:  25    -0.445811325901E+03   -0.36415E-06   -0.14869E-05  1984   0.574E-02    0.604E-03
RMM:  26    -0.445811326073E+03   -0.17186E-06   -0.11420E-05  1941   0.561E-02    0.595E-03
RMM:  27    -0.445811326014E+03    0.58790E-07   -0.90055E-06  1918   0.557E-02
  27 F= -.23462727E+03 E0= -.23461976E+03  d E =-.149098E-01
 BRION: g(F)=  0.180E-02 g(S)=  0.466E-03
 BRIONS problems: POTIM should be increased
 retain N=  1 mean eig=63.35
 eig:  63.351
 bond charge predicted
       N       E                     dE             d eps       ncg     rms          rms(c)
DAV:   1    -0.445340202731E+03    0.47112E+00   -0.17191E+01  2788   0.213E+01    0.250E+00
RMM:   2    -0.445456761824E+03   -0.11656E+00   -0.17766E+00  3124   0.561E+00    0.121E+00
RMM:   3    -0.445471788313E+03   -0.15026E-01   -0.35071E-01  3221   0.284E+00    0.570E-01
RMM:   4    -0.445489136716E+03   -0.17348E-01   -0.19325E-01  3290   0.202E+00    0.323E-01
RMM:   5    -0.445497058632E+03   -0.79219E-02   -0.80871E-02  3462   0.134E+00    0.217E-01
RMM:   6    -0.445501341660E+03   -0.42830E-02   -0.43432E-02  3364   0.944E-01    0.428E-02
RMM:   7    -0.445503117825E+03   -0.17762E-02   -0.18424E-02  3363   0.645E-01    0.459E-02
WARNING in EDDRMM: call to ZHEGV failed, returncode =   8  4      4
RMM:   8    -0.445504281533E+03   -0.11637E-02   -0.11870E-02  3036   0.487E-01    0.576E-02
RMM:   9    -0.445504784152E+03   -0.50262E-03   -0.51763E-03  2859   0.343E-01    0.170E-01
RMM:  10    -0.445505112559E+03   -0.32841E-03   -0.32939E-03  2685   0.262E-01    0.881E-02
RMM:  11    -0.445505259308E+03   -0.14675E-03   -0.14846E-03  2585   0.190E-01    0.696E-02
RMM:  12    -0.445505348688E+03   -0.89380E-04   -0.92099E-04  2460   0.150E-01    0.667E-02
RMM:  13    -0.445505388824E+03   -0.40136E-04   -0.42549E-04  2338   0.116E-01    0.723E-02
RMM:  14    -0.445505413971E+03   -0.25147E-04   -0.26489E-04  2229   0.982E-02    0.626E-02
RMM:  15    -0.445505425509E+03   -0.11538E-04   -0.12666E-04  2181   0.839E-02    0.481E-02
RMM:  16    -0.445505433726E+03   -0.82176E-05   -0.92199E-05  2140   0.764E-02    0.295E-02
RMM:  17    -0.445505436656E+03   -0.29295E-05   -0.48687E-05  1993   0.700E-02    0.257E-02
RMM:  18    -0.445505439192E+03   -0.25368E-05   -0.44434E-05  2019   0.681E-02    0.184E-02
RMM:  19    -0.445505441279E+03   -0.20867E-05   -0.37590E-05  1986   0.654E-02    0.143E-02
RMM:  20    -0.445505442607E+03   -0.13282E-05   -0.29777E-05  1989   0.637E-02    0.125E-02
RMM:  21    -0.445505442991E+03   -0.38336E-06   -0.19680E-05  1976   0.623E-02    0.118E-02
RMM:  22    -0.445505443224E+03   -0.23341E-06   -0.19986E-05  1950   0.624E-02    0.106E-02
RMM:  23    -0.445505444499E+03   -0.12754E-05   -0.26938E-05  2006   0.623E-02    0.186E-03
RMM:  24    -0.445505444805E+03   -0.30590E-06   -0.17242E-05  1961   0.609E-02    0.401E-03
RMM:  25    -0.445505445519E+03   -0.71391E-06   -0.22606E-05  1968   0.611E-02    0.375E-03
RMM:  26    -0.445505446441E+03   -0.92172E-06   -0.22187E-05  1975   0.595E-02    0.341E-03
RMM:  27    -0.445505446605E+03   -0.16379E-06   -0.13502E-05  1955   0.580E-02    0.390E-03
RMM:  28    -0.445505446842E+03   -0.23671E-06   -0.14246E-05  1938   0.583E-02    0.431E-03
RMM:  29    -0.445505447154E+03   -0.31281E-06   -0.15437E-05  1963   0.583E-02    0.425E-03
RMM:  30    -0.445505447362E+03   -0.20753E-06   -0.12954E-05  1934   0.576E-02    0.480E-03
RMM:  31    -0.445505448024E+03   -0.66200E-06   -0.17566E-05  2000   0.572E-02    0.428E-03
RMM:  32    -0.445505448487E+03   -0.46347E-06   -0.13342E-05  1972   0.556E-02    0.419E-03
RMM:  33    -0.445505448623E+03   -0.13601E-06   -0.10043E-05  1956   0.552E-02    0.391E-03
RMM:  34    -0.445505448577E+03    0.46461E-07   -0.87666E-06  1943   0.557E-02
  28 F= -.23453665E+03 E0= -.23452908E+03  d E =0.906267E-01
 BRION: g(F)=  0.176E-01 g(S)=  0.704E-02 retain N=  1 mean eig= 0.54
 eig:   0.545
 bond charge predicted
       N       E                     dE             d eps       ncg     rms          rms(c)
DAV:   1    -0.445612427568E+03   -0.10698E+00   -0.27450E+01  2784   0.268E+01    0.326E+00
RMM:   2    -0.445800126786E+03   -0.18770E+00   -0.28064E+00  3127   0.715E+00    0.148E+00
RMM:   3    -0.445826990750E+03   -0.26864E-01   -0.56738E-01  3237   0.364E+00    0.747E-01
RMM:   4    -0.445854166697E+03   -0.27176E-01   -0.30742E-01  3311   0.258E+00    0.378E-01
RMM:   5    -0.445867036721E+03   -0.12870E-01   -0.13216E-01  3413   0.174E+00    0.233E-01
RMM:   6    -0.445873819440E+03   -0.67827E-02   -0.69378E-02  3337   0.122E+00    0.115E-01
RMM:   7    -0.445876818874E+03   -0.29994E-02   -0.30857E-02  3405   0.849E-01    0.359E-02
RMM:   8    -0.445878691874E+03   -0.18730E-02   -0.19168E-02  3235   0.624E-01    0.540E-02
RMM:   9    -0.445879513601E+03   -0.82173E-03   -0.83820E-03  2913   0.438E-01    0.809E-02
RMM:  10    -0.445880046753E+03   -0.53315E-03   -0.54063E-03  2720   0.330E-01    0.141E-01
RMM:  11    -0.445880273404E+03   -0.22665E-03   -0.23622E-03  2607   0.239E-01    0.108E-01
RMM:  12    -0.445880415669E+03   -0.14226E-03   -0.14830E-03  2595   0.186E-01    0.968E-02
RMM:  13    -0.445880487003E+03   -0.71334E-04   -0.74328E-04  2415   0.143E-01    0.114E-01
RMM:  14    -0.445880529155E+03   -0.42152E-04   -0.44777E-04  2434   0.116E-01    0.939E-02
RMM:  15    -0.445880547122E+03   -0.17967E-04   -0.21232E-04  2255   0.940E-02    0.113E-01
RMM:  16    -0.445880566121E+03   -0.18999E-04   -0.17142E-04  2570   0.835E-02    0.157E-01
RMM:  17    -0.445880573661E+03   -0.75399E-05   -0.83547E-05  1985   0.698E-02    0.163E-01
RMM:  18    -0.445880576225E+03   -0.25638E-05   -0.50414E-05  1853   0.646E-02    0.160E-01
RMM:  19    -0.445880575705E+03    0.51984E-06   -0.35555E-05  1873   0.636E-02    0.149E-01
RMM:  20    -0.445880575137E+03    0.56808E-06   -0.27637E-05  1886   0.636E-02    0.138E-01
RMM:  21    -0.445880574026E+03    0.11111E-05   -0.28452E-05  1921   0.639E-02    0.117E-01
RMM:  22    -0.445880575438E+03   -0.14118E-05   -0.30864E-05  1990   0.639E-02    0.110E-01
RMM:  23    -0.445880574867E+03    0.57054E-06   -0.24984E-05  1968   0.619E-02    0.928E-02
RMM:  24    -0.445880571839E+03    0.30280E-05   -0.22161E-05  1945   0.618E-02    0.689E-02
RMM:  25    -0.445880569031E+03    0.28086E-05   -0.20658E-05  1929   0.619E-02    0.370E-02
RMM:  26    -0.445880568321E+03    0.70946E-06   -0.18746E-05  1944   0.617E-02    0.278E-02
RMM:  27    -0.445880567042E+03    0.12790E-05   -0.18466E-05  1954   0.617E-02    0.909E-03
RMM:  28    -0.445880566848E+03    0.19413E-06   -0.19651E-05  1956   0.613E-02    0.293E-03
RMM:  29    -0.445880566734E+03    0.11370E-06   -0.17905E-05  1843   0.608E-02    0.791E-04
RMM:  30    -0.445880566675E+03    0.59168E-07   -0.16667E-05  1878   0.611E-02    0.596E-04
RMM:  31    -0.445880566813E+03   -0.13751E-06   -0.17409E-05  1899   0.611E-02    0.636E-04
RMM:  32    -0.445880567639E+03   -0.82622E-06   -0.23487E-05  1957   0.609E-02    0.861E-04
RMM:  33    -0.445880568406E+03   -0.76692E-06   -0.20460E-05  1930   0.594E-02    0.107E-03
RMM:  34    -0.445880569319E+03   -0.91314E-06   -0.20801E-05  1961   0.581E-02    0.114E-03
RMM:  35    -0.445880569655E+03   -0.33627E-06   -0.13727E-05  1937   0.568E-02    0.122E-03
RMM:  36    -0.445880569751E+03   -0.95330E-07   -0.11599E-05  1944   0.566E-02    0.120E-03
RMM:  37    -0.445880569788E+03   -0.36969E-07   -0.10679E-05  1940   0.569E-02    0.188E-03
RMM:  38    -0.445880569891E+03   -0.10306E-06   -0.11732E-05  1949   0.572E-02    0.173E-03
RMM:  39    -0.445880570028E+03   -0.13757E-06   -0.12075E-05  1983   0.572E-02    0.159E-03
RMM:  40    -0.445880570056E+03   -0.27940E-07   -0.10373E-05  1965   0.567E-02    0.129E-03
RMM:  41    -0.445880570147E+03   -0.91070E-07   -0.10661E-05  1999   0.565E-02    0.841E-04
RMM:  42    -0.445880570237E+03   -0.89745E-07   -0.10775E-05  1983   0.566E-02    0.898E-04
RMM:  43    -0.445880570146E+03    0.90942E-07   -0.88510E-06  1952   0.564E-02
  29 F= -.23464446E+03 E0= -.23463633E+03  d E =-.107811E+00
 BRION: g(F)=  0.305E-02 g(S)=  0.991E-03 retain N=  1 mean eig= 2.82
 eig:   2.822
 bond charge predicted
       N       E                     dE             d eps       ncg     rms          rms(c)
DAV:   1    -0.446001842758E+03   -0.12127E+00   -0.82298E+00  2908   0.145E+01    0.176E+00
RMM:   2    -0.446055902434E+03   -0.54060E-01   -0.83288E-01  3127   0.399E+00    0.831E-01
RMM:   3    -0.446065153162E+03   -0.92507E-02   -0.18513E-01  3220   0.209E+00    0.396E-01
RMM:   4    -0.446074172235E+03   -0.90191E-02   -0.99942E-02  3255   0.149E+00    0.175E-01
RMM:   5    -0.446078395494E+03   -0.42233E-02   -0.42986E-02  3399   0.999E-01    0.123E-01
RMM:   6    -0.446080623755E+03   -0.22283E-02   -0.22743E-02  3315   0.705E-01    0.537E-02
RMM:   7    -0.446081603817E+03   -0.98006E-03   -0.10100E-02  3279   0.489E-01    0.168E-02
RMM:   8    -0.446082209457E+03   -0.60564E-03   -0.61992E-03  2907   0.364E-01    0.285E-02
RMM:   9    -0.446082481956E+03   -0.27250E-03   -0.27822E-03  2684   0.260E-01    0.536E-02
RMM:  10    -0.446082653795E+03   -0.17184E-03   -0.17702E-03  2560   0.201E-01    0.664E-02
RMM:  11    -0.446082731899E+03   -0.78104E-04   -0.80792E-04  2422   0.151E-01    0.726E-02
RMM:  12    -0.446082778620E+03   -0.46721E-04   -0.49853E-04  2370   0.122E-01    0.691E-02
RMM:  13    -0.446082800328E+03   -0.21708E-04   -0.25052E-04  2261   0.985E-02    0.513E-02
RMM:  14    -0.446082814005E+03   -0.13677E-04   -0.16663E-04  2249   0.847E-02    0.423E-02
RMM:  15    -0.446082818724E+03   -0.47194E-05   -0.71810E-05  2039   0.738E-02    0.434E-02
WARNING in EDDRMM: call to ZHEGV failed, returncode =   8  4      8
RMM:  16    -0.446082820701E+03   -0.19767E-05   -0.53388E-05  2033   0.701E-02    0.310E-02
RMM:  17    -0.446082820537E+03    0.16388E-06   -0.35774E-05  1971   0.671E-02    0.522E-03
RMM:  18    -0.446082821778E+03   -0.12406E-05   -0.36187E-05  1963   0.663E-02    0.333E-03
RMM:  19    -0.446082822696E+03   -0.91823E-06   -0.30188E-05  1981   0.641E-02    0.102E-03
RMM:  20    -0.446082823458E+03   -0.76206E-06   -0.26410E-05  1953   0.628E-02    0.150E-03
RMM:  21    -0.446082824468E+03   -0.10102E-05   -0.27305E-05  1978   0.623E-02    0.149E-03
RMM:  22    -0.446082825584E+03   -0.11154E-05   -0.25338E-05  2008   0.605E-02    0.149E-03
RMM:  23    -0.446082826453E+03   -0.86904E-06   -0.20939E-05  1959   0.590E-02    0.152E-03
WARNING in EDDRMM: call to ZHEGV failed, returncode =   8  4      8
RMM:  24    -0.446082826655E+03   -0.20233E-06   -0.14369E-05  1958   0.582E-02    0.146E-03
RMM:  25    -0.446082826560E+03    0.95264E-07   -0.10846E-05  1918   0.582E-02    0.126E-03
RMM:  26    -0.446082826743E+03   -0.18296E-06   -0.15533E-05  1942   0.593E-02    0.158E-03
RMM:  27    -0.446082827145E+03   -0.40204E-06   -0.15643E-05  1971   0.590E-02    0.160E-03
RMM:  28    -0.446082827241E+03   -0.95984E-07   -0.12240E-05  1965   0.586E-02    0.160E-03
WARNING in EDDRMM: call to ZHEGV failed, returncode =   8  4     11
RMM:  29    -0.446082827434E+03   -0.19316E-06   -0.13556E-05  1964   0.588E-02    0.155E-03
RMM:  30    -0.446082827643E+03   -0.20889E-06   -0.12871E-05  1954   0.583E-02    0.154E-03
RMM:  31    -0.446082827923E+03   -0.28047E-06   -0.13543E-05  1979   0.584E-02    0.144E-03
RMM:  32    -0.446082828308E+03   -0.38463E-06   -0.13181E-05  1978   0.574E-02    0.145E-03
RMM:  33    -0.446082828496E+03   -0.18815E-06   -0.10909E-05  2006   0.568E-02    0.147E-03
RMM:  34    -0.446082828646E+03   -0.15014E-06   -0.10428E-05  1983   0.565E-02    0.153E-03
RMM:  35    -0.446082828633E+03    0.13046E-07   -0.90651E-06  1996   0.564E-02
  30 F= -.23470303E+03 E0= -.23469836E+03  d E =-.585697E-01
 BRION: g(F)=  0.372E-02 g(S)=  0.109E-02
 BRIONS problems: POTIM should be increased
 retain N=  1 mean eig= 8.75
 eig:   8.746
 bond charge predicted
       N       E                     dE             d eps       ncg     rms          rms(c)
DAV:   1    -0.445772262966E+03    0.31057E+00   -0.10221E+01  2840   0.163E+01    0.192E+00
RMM:   2    -0.445834787959E+03   -0.62525E-01   -0.98760E-01  3129   0.430E+00    0.964E-01
RMM:   3    -0.445843732892E+03   -0.89449E-02   -0.21290E-01  3221   0.223E+00    0.426E-01
RMM:   4    -0.445854472319E+03   -0.10739E-01   -0.11737E-01  3284   0.159E+00    0.230E-01
RMM:   5    -0.445859260961E+03   -0.47886E-02   -0.48837E-02  3444   0.105E+00    0.164E-01
[...]
RMM:  25    -0.446079483623E+03   -0.60908E-06   -0.18553E-05  1961   0.595E-02    0.654E-03
RMM:  26    -0.446079484124E+03   -0.50072E-06   -0.17345E-05  1962   0.590E-02    0.592E-03
RMM:  27    -0.446079484609E+03   -0.48528E-06   -0.16426E-05  1971   0.584E-02    0.577E-03
RMM:  28    -0.446079485169E+03   -0.56032E-06   -0.16287E-05  1958   0.576E-02    0.545E-03
RMM:  29    -0.446079485405E+03   -0.23616E-06   -0.12673E-05  1963   0.567E-02    0.571E-03
RMM:  30    -0.446079485702E+03   -0.29649E-06   -0.13131E-05  1959   0.564E-02    0.587E-03
RMM:  31    -0.446079485905E+03   -0.20348E-06   -0.10911E-05  1960   0.557E-02    0.578E-03
RMM:  32    -0.446079486007E+03   -0.10181E-06   -0.10137E-05  1971   0.558E-02    0.573E-03
RMM:  33    -0.446079486119E+03   -0.11185E-06   -0.10329E-05  1974   0.560E-02    0.579E-03
RMM:  34    -0.446079486282E+03   -0.16270E-06   -0.10571E-05  1990   0.558E-02    0.578E-03
RMM:  35    -0.446079486425E+03   -0.14293E-06   -0.10255E-05  1973   0.557E-02    0.569E-03
RMM:  36    -0.446079486491E+03   -0.66713E-07   -0.94011E-06  1965   0.556E-02
  98 F= -.23469108E+03 E0= -.23468530E+03  d E =-.542272E-01
 BRION: g(F)=  0.891E-02 g(S)=  0.534E-02 retain N=  1 mean eig= 0.14
 eig:   0.144
 bond charge predicted
       N       E                     dE             d eps       ncg     rms          rms(c)
DAV:   1    -0.445364518522E+03    0.71497E+00   -0.26448E+01  2824   0.278E+01    0.300E+00
RMM:   2    -0.445558771892E+03   -0.19425E+00   -0.27426E+00  3125   0.722E+00    0.145E+00
RMM:   3    -0.445590661978E+03   -0.31890E-01   -0.59483E-01  3228   0.370E+00    0.692E-01
RMM:   4    -0.445619793908E+03   -0.29132E-01   -0.31640E-01  3309   0.261E+00    0.482E-01
RMM:   5    -0.445633337570E+03   -0.13544E-01   -0.13914E-01  3482   0.174E+00    0.285E-01
RMM:   6    -0.445640494521E+03   -0.71570E-02   -0.72891E-02  3318   0.121E+00    0.575E-02
RMM:   7    -0.445643501730E+03   -0.30072E-02   -0.31178E-02  3411   0.829E-01    0.598E-02
RMM:   8    -0.445645458172E+03   -0.19564E-02   -0.19898E-02  3142   0.618E-01    0.758E-02
WARNING in EDDRMM: call to ZHEGV failed, returncode =   8  4      4
RMM:   9    -0.445646291121E+03   -0.83295E-03   -0.85847E-03  2954   0.429E-01    0.237E-01
RMM:  10    -0.445646836037E+03   -0.54492E-03   -0.54367E-03  2745   0.325E-01    0.110E-01
RMM:  11    -0.445647073567E+03   -0.23753E-03   -0.23974E-03  2643   0.235E-01    0.895E-02
RMM:  12    -0.445647228156E+03   -0.15459E-03   -0.15776E-03  2503   0.183E-01    0.875E-02
RMM:  13    -0.445647292188E+03   -0.64033E-04   -0.66742E-04  2360   0.137E-01    0.972E-02
RMM:  14    -0.445647336561E+03   -0.44372E-04   -0.45410E-04  2298   0.114E-01    0.816E-02
RMM:  15    -0.445647358951E+03   -0.22390E-04   -0.21194E-04  2185   0.936E-02    0.434E-02
RMM:  16    -0.445647373070E+03   -0.14118E-04   -0.14859E-04  2191   0.827E-02    0.265E-02
RMM:  17    -0.445647378459E+03   -0.53897E-05   -0.70562E-05  2083   0.727E-02    0.236E-02
RMM:  18    -0.445647381793E+03   -0.33332E-05   -0.50549E-05  2017   0.687E-02    0.170E-02
RMM:  19    -0.445647383400E+03   -0.16076E-05   -0.32602E-05  1960   0.659E-02    0.112E-02
RMM:  20    -0.445647385238E+03   -0.18378E-05   -0.33994E-05  1970   0.649E-02    0.454E-03
RMM:  21    -0.445647386826E+03   -0.15877E-05   -0.32466E-05  2004   0.636E-02    0.149E-03
WARNING in EDDRMM: call to ZHEGV failed, returncode =   8  4      9
RMM:  22    -0.445647388584E+03   -0.17584E-05   -0.31713E-05  2030   0.617E-02    0.198E-03
RMM:  23    -0.445647389537E+03   -0.95280E-06   -0.24052E-05  1987   0.598E-02    0.175E-03
RMM:  24    -0.445647390309E+03   -0.77172E-06   -0.20670E-05  1981   0.586E-02    0.211E-03
RMM:  25    -0.445647390969E+03   -0.66077E-06   -0.19373E-05  1947   0.580E-02    0.193E-03
RMM:  26    -0.445647391329E+03   -0.35920E-06   -0.15018E-05  1942   0.570E-02    0.190E-03
RMM:  27    -0.445647391554E+03   -0.22556E-06   -0.13704E-05  1949   0.569E-02    0.190E-03
WARNING in EDDRMM: call to ZHEGV failed, returncode =   8  4     11
RMM:  28    -0.445647391703E+03   -0.14851E-06   -0.12732E-05  1952   0.571E-02    0.192E-03
RMM:  29    -0.445647391837E+03   -0.13458E-06   -0.12669E-05  1952   0.574E-02    0.189E-03
WARNING in EDDRMM: call to ZHEGV failed, returncode =   8  4     10
RMM:  30    -0.445647392081E+03   -0.24349E-06   -0.14015E-05  1957   0.576E-02    0.154E-03
RMM:  31    -0.445647392413E+03   -0.33282E-06   -0.13527E-05  1952   0.569E-02    0.150E-03
RMM:  32    -0.445647392727E+03   -0.31361E-06   -0.13682E-05  1992   0.569E-02    0.142E-03
RMM:  33    -0.445647392801E+03   -0.73418E-07   -0.98127E-06  1944   0.556E-02
  99 F= -.23459576E+03 E0= -.23459011E+03  d E =0.953211E-01
 BRION: g(F)=  0.508E-02 g(S)=  0.287E-02 retain N=  1 mean eig= 6.13
 eig:   6.126
 bond charge predicted
       N       E                     dE             d eps       ncg     rms          rms(c)
DAV:   1    -0.443862035161E+03    0.17854E+01   -0.74314E+01  2904   0.469E+01    0.524E+00
RMM:   2    -0.444402241482E+03   -0.54021E+00   -0.75921E+00  3125   0.118E+01    0.237E+00
RMM:   3    -0.444475683044E+03   -0.73442E-01   -0.14658E+00  3250   0.572E+00    0.120E+00
RMM:   4    -0.444544906607E+03   -0.69224E-01   -0.76164E-01  3345   0.401E+00    0.952E-01
RMM:   5    -0.444578070176E+03   -0.33164E-01   -0.34176E-01  3516   0.267E+00    0.466E-01
RMM:   6    -0.444594364940E+03   -0.16295E-01   -0.17025E-01  3311   0.183E+00    0.899E-02
RMM:   7    -0.444601483372E+03   -0.71184E-02   -0.73014E-02  3419   0.126E+00    0.133E-01
RMM:   8    -0.444605975956E+03   -0.44926E-02   -0.45691E-02  3256   0.933E-01    0.212E-01
RMM:   9    -0.444607955872E+03   -0.19799E-02   -0.20132E-02  3260   0.643E-01    0.295E-01
RMM:  10    -0.444609185075E+03   -0.12292E-02   -0.12525E-02  2847   0.479E-01    0.326E-01
RMM:  11    -0.444609754653E+03   -0.56958E-03   -0.57851E-03  2746   0.344E-01    0.326E-01
RMM:  12    -0.444610098710E+03   -0.34406E-03   -0.35074E-03  2632   0.263E-01    0.373E-01
WARNING in EDDRMM: call to ZHEGV failed, returncode =   8  4     11
RMM:  13    -0.444610263626E+03   -0.16492E-03   -0.16837E-03  2694   0.199E-01    0.388E-01
WARNING in EDDRMM: call to ZHEGV failed, returncode =   8  4      5
RMM:  14    -0.444610354769E+03   -0.91143E-04   -0.10493E-03  2713   0.160E-01    0.391E-01
RMM:  15    -0.444610410217E+03   -0.55448E-04   -0.57594E-04  2398   0.126E-01    0.424E-01
RMM:  16    -0.444610448981E+03   -0.38764E-04   -0.33758E-04  2766   0.105E-01    0.496E-01
WARNING in EDDRMM: call to ZHEGV failed, returncode =   6  3     11
RMM:  17    -0.444610478337E+03   -0.29357E-04   -0.22812E-04  2304   0.858E-02    0.543E-01
RMM:  18    -0.444610488955E+03   -0.10617E-04   -0.97770E-05  2104   0.722E-02    0.562E-01
RMM:  19    -0.444610494197E+03   -0.52426E-05   -0.67337E-05  1947   0.672E-02    0.567E-01
RMM:  20    -0.444610497581E+03   -0.33835E-05   -0.55763E-05  1895   0.641E-02    0.554E-01
RMM:  21    -0.444610493895E+03    0.36860E-05   -0.39195E-05  1865   0.622E-02    0.534E-01
RMM:  22    -0.444610496198E+03   -0.23029E-05   -0.43286E-05  1862   0.617E-02    0.534E-01
RMM:  23    -0.444610493419E+03    0.27784E-05   -0.30237E-05  1784   0.604E-02    0.514E-01
RMM:  24    -0.444610489308E+03    0.41108E-05   -0.36647E-05  2139   0.626E-02    0.481E-01
RMM:  25    -0.444610487659E+03    0.16497E-05   -0.29434E-05  1931   0.592E-02    0.453E-01
RMM:  26    -0.444610487740E+03   -0.80785E-07   -0.16410E-05  1749   0.577E-02    0.447E-01
RMM:  27    -0.444610487845E+03   -0.10507E-06   -0.21728E-05  1776   0.592E-02    0.440E-01
RMM:  28    -0.444610487800E+03    0.44605E-07   -0.22186E-05  1821   0.604E-02    0.440E-01
RMM:  29    -0.444610487939E+03   -0.13927E-06   -0.22957E-05  1858   0.609E-02    0.440E-01
RMM:  30    -0.444610488773E+03   -0.83399E-06   -0.31692E-05  1891   0.615E-02    0.440E-01
RMM:  31    -0.444610489309E+03   -0.53529E-06   -0.21305E-05  1861   0.593E-02    0.440E-01
RMM:  32    -0.444610490160E+03   -0.85150E-06   -0.26542E-05  1924   0.593E-02    0.440E-01
RMM:  33    -0.444610490944E+03   -0.78362E-06   -0.24299E-05  1878   0.579E-02    0.440E-01
WARNING in EDDRMM: call to ZHEGV failed, returncode =   8  4     10
RMM:  34    -0.444610491760E+03   -0.81631E-06   -0.22285E-05  1876   0.566E-02    0.440E-01
RMM:  35    -0.444610492348E+03   -0.58782E-06   -0.16267E-05  1869   0.559E-02    0.438E-01
RMM:  36    -0.444610492585E+03   -0.23717E-06   -0.11871E-05  1863   0.561E-02    0.438E-01
RMM:  37    -0.444610497414E+03   -0.48288E-05   -0.14183E-05  1927   0.571E-02    0.390E-01
RMM:  38    -0.444610501725E+03   -0.43117E-05   -0.11733E-05  1929   0.572E-02    0.374E-01
RMM:  39    -0.444610503537E+03   -0.18121E-05   -0.12685E-05  1939   0.579E-02    0.361E-01
RMM:  40    -0.444610505620E+03   -0.20825E-05   -0.12805E-05  1975   0.582E-02    0.350E-01
RMM:  41    -0.444610509642E+03   -0.40223E-05   -0.13167E-05  1910   0.585E-02    0.318E-01
RMM:  42    -0.444610511584E+03   -0.19419E-05   -0.17323E-05  1959   0.595E-02    0.275E-01
RMM:  43    -0.444610511018E+03    0.56652E-06   -0.18569E-05  1903   0.596E-02    0.204E-01
RMM:  44    -0.444610506628E+03    0.43897E-05   -0.20101E-05  1991   0.596E-02    0.176E-01
RMM:  45    -0.444610501356E+03    0.52725E-05   -0.21427E-05  1954   0.600E-02    0.152E-01
RMM:  46    -0.444610498729E+03    0.26267E-05   -0.23991E-05  1832   0.603E-02    0.134E-01
RMM:  47    -0.444610500252E+03   -0.15232E-05   -0.10799E-05  1667   0.598E-02    0.127E-01
RMM:  48    -0.444610500449E+03   -0.19708E-06   -0.23718E-05  1829   0.634E-02    0.117E-01
RMM:  49    -0.444610502446E+03   -0.19969E-05   -0.23635E-05  1848   0.628E-02    0.109E-01
RMM:  50    -0.444610502626E+03   -0.18001E-06   -0.19787E-05  1786   0.621E-02    0.107E-01
RMM:  51    -0.444610503058E+03   -0.43216E-06   -0.19323E-05  1817   0.626E-02    0.108E-01
RMM:  52    -0.444610503936E+03   -0.87800E-06   -0.33850E-05  1960   0.642E-02    0.110E-01
RMM:  53    -0.444610504937E+03   -0.10011E-05   -0.20838E-05  1896   0.603E-02    0.111E-01
RMM:  54    -0.444610505400E+03   -0.46274E-06   -0.22796E-05  1849   0.594E-02    0.110E-01
RMM:  55    -0.444610506231E+03   -0.83066E-06   -0.18683E-05  1850   0.585E-02    0.111E-01
RMM:  56    -0.444610506299E+03   -0.68383E-07   -0.15434E-05  1850   0.578E-02    0.111E-01
RMM:  57    -0.444610507682E+03   -0.13834E-05   -0.19117E-05  1932   0.583E-02    0.113E-01
RMM:  58    -0.444610507522E+03    0.16029E-06   -0.13265E-05  1906   0.572E-02    0.112E-01
RMM:  59    -0.444610507972E+03   -0.44971E-06   -0.11340E-05  1897   0.570E-02    0.113E-01
RMM:  60    -0.444610508156E+03   -0.18437E-06   -0.97622E-06  1893   0.575E-02
 100 F= -.23418250E+03 E0= -.23417861E+03  d E =0.413259E+00
 BRION: g(F)=  0.103E+00 g(S)=  0.651E-01 retain N=  1 mean eig= 0.94
 eig:   0.939
 bond charge predicted
       N       E                     dE             d eps       ncg     rms          rms(c)
DAV:   1    -0.444509383692E+03    0.10112E+00   -0.11765E+02  2756   0.593E+01    0.744E+00
RMM:   2    -0.445439808680E+03   -0.93042E+00   -0.12715E+01  3132   0.156E+01    0.290E+00
RMM:   3    -0.445600922296E+03   -0.16111E+00   -0.26585E+00  3302   0.763E+00    0.172E+00
RMM:   4    -0.445717563049E+03   -0.11664E+00   -0.12995E+00  3340   0.531E+00    0.140E+00
RMM:   5    -0.445772549816E+03   -0.54987E-01   -0.59201E-01  3435   0.357E+00    0.604E-01
RMM:   6    -0.445801100156E+03   -0.28550E-01   -0.30016E-01  3310   0.247E+00    0.147E-01
RMM:   7    -0.445813469736E+03   -0.12370E-01   -0.12663E-01  3382   0.168E+00    0.178E-01
RMM:   8    -0.445821030775E+03   -0.75610E-02   -0.76917E-02  3242   0.123E+00    0.271E-01
RMM:   9    -0.445824388264E+03   -0.33575E-02   -0.34103E-02  3332   0.841E-01    0.347E-01
RMM:  10    -0.445826446107E+03   -0.20578E-02   -0.20671E-02  3206   0.617E-01    0.293E-01
RMM:  11    -0.445827270863E+03   -0.82476E-03   -0.89307E-03  3197   0.436E-01    0.372E-01
RMM:  12    -0.445827862614E+03   -0.59175E-03   -0.58227E-03  3106   0.332E-01    0.409E-01
RMM:  13    -0.445828117953E+03   -0.25534E-03   -0.25113E-03  2712   0.230E-01    0.412E-01
RMM:  14    -0.445828275466E+03   -0.15751E-03   -0.15577E-03  2621   0.178E-01    0.396E-01
WARNING in EDDRMM: call to ZHEGV failed, returncode =   8  4      4
RMM:  15    -0.445828344194E+03   -0.68729E-04   -0.72643E-04  2433   0.133E-01    0.336E-01
RMM:  16    -0.445828357643E+03   -0.13449E-04   -0.45696E-04  2656   0.109E-01    0.275E-01
RMM:  17    -0.445828360606E+03   -0.29633E-05   -0.25432E-04  2744   0.882E-02    0.195E-01
RMM:  18    -0.445828366144E+03   -0.55381E-05   -0.12901E-04  2239   0.710E-02    0.154E-01
RMM:  19    -0.445828362171E+03    0.39730E-05   -0.87960E-05  2403   0.647E-02    0.653E-02
RMM:  20    -0.445828364541E+03   -0.23695E-05   -0.54954E-05  1913   0.580E-02    0.538E-02
RMM:  21    -0.445828365107E+03   -0.56633E-06   -0.42695E-05  1900   0.558E-02    0.335E-02
WARNING in EDDRMM: call to ZHEGV failed, returncode =   8  4     10
RMM:  22    -0.445828365675E+03   -0.56754E-06   -0.24923E-05  1810   0.549E-02    0.335E-02
RMM:  23    -0.445828366565E+03   -0.88983E-06   -0.29299E-05  1809   0.556E-02    0.339E-02
RMM:  24    -0.445828366957E+03   -0.39266E-06   -0.28651E-05  1868   0.559E-02    0.266E-02
RMM:  25    -0.445828367953E+03   -0.99545E-06   -0.29353E-05  1935   0.558E-02    0.244E-02
RMM:  26    -0.445828367866E+03    0.86497E-07   -0.20886E-05  1831   0.544E-02    0.187E-02
RMM:  27    -0.445828366683E+03    0.11832E-05   -0.19609E-05  1888   0.551E-02    0.733E-03
RMM:  28    -0.445828368550E+03   -0.18669E-05   -0.34710E-05  2000   0.558E-02    0.216E-03
RMM:  29    -0.445828369731E+03   -0.11808E-05   -0.22788E-05  1935   0.515E-02    0.189E-03
RMM:  30    -0.445828369969E+03   -0.23866E-06   -0.14828E-05  1841   0.503E-02    0.202E-03
RMM:  31    -0.445828369964E+03    0.52969E-08   -0.12140E-05  1804   0.503E-02    0.236E-03
RMM:  32    -0.445828369814E+03    0.15045E-06   -0.11075E-05  1794   0.508E-02    0.216E-03
RMM:  33    -0.445828369824E+03   -0.10299E-07   -0.12655E-05  1808   0.517E-02    0.215E-03
RMM:  34    -0.445828370140E+03   -0.31609E-06   -0.14598E-05  1829   0.519E-02    0.275E-03
RMM:  35    -0.445828370043E+03    0.97371E-07   -0.10861E-05  1813   0.516E-02    0.234E-03
RMM:  36    -0.445828369950E+03    0.92412E-07   -0.11057E-05  1827   0.525E-02    0.229E-03
RMM:  37    -0.445828370176E+03   -0.22608E-06   -0.13638E-05  1904   0.528E-02    0.199E-03
RMM:  38    -0.445828370161E+03    0.15702E-07   -0.10018E-05  1880   0.518E-02    0.167E-03
RMM:  39    -0.445828370298E+03   -0.13786E-06   -0.10627E-05  1895   0.512E-02    0.178E-03
RMM:  40    -0.445828370270E+03    0.28565E-07   -0.82117E-06  1871   0.509E-02
 101 F= -.23463327E+03 E0= -.23462545E+03  d E =-.450769E+00
 BRION: g(F)=  0.205E-02 g(S)=  0.140E-02 retain N=  1 mean eig= 1.22
 eig:   1.222
 bond charge predicted
       N       E                     dE             d eps       ncg     rms          rms(c)
DAV:   1    -0.445949333610E+03   -0.12096E+00   -0.32629E+00  3080   0.980E+00    0.991E-01
RMM:   2    -0.445973206848E+03   -0.23873E-01   -0.35022E-01  3132   0.257E+00    0.484E-01
RMM:   3    -0.445977946535E+03   -0.47397E-02   -0.76056E-02  3229   0.133E+00    0.246E-01
RMM:   4    -0.445981495075E+03   -0.35485E-02   -0.39592E-02  3236   0.938E-01    0.988E-02
RMM:   5    -0.445983257807E+03   -0.17627E-02   -0.17974E-02  3410   0.635E-01    0.771E-02
RMM:   6    -0.445984137273E+03   -0.87947E-03   -0.90016E-03  3225   0.441E-01    0.421E-02
RMM:   7    -0.445984535081E+03   -0.39781E-03   -0.41155E-03  3044   0.309E-01    0.819E-03
WARNING in EDDRMM: call to ZHEGV failed, returncode =   8  4      4
RMM:   8    -0.445984772896E+03   -0.23782E-03   -0.24415E-03  2696   0.231E-01    0.196E-02
WARNING in EDDRMM: call to ZHEGV failed, returncode =   8  4     19
RMM:   9    -0.445984882281E+03   -0.10939E-03   -0.11306E-03  2539   0.172E-01    0.230E-02
RMM:  10    -0.445984949629E+03   -0.67348E-04   -0.69768E-04  2374   0.137E-01    0.401E-02
RMM:  11    -0.445984982097E+03   -0.32468E-04   -0.35726E-04  2346   0.110E-01    0.301E-02
RMM:  12    -0.445984999410E+03   -0.17313E-04   -0.19998E-04  2280   0.924E-02    0.211E-02
RMM:  13    -0.445985007115E+03   -0.77056E-05   -0.10217E-04  2113   0.802E-02    0.185E-02
RMM:  14    -0.445985012980E+03   -0.58647E-05   -0.81656E-05  2106   0.743E-02    0.215E-02
RMM:  15    -0.445985015886E+03   -0.29057E-05   -0.48309E-05  1982   0.686E-02    0.249E-02
RMM:  16    -0.445985017009E+03   -0.11236E-05   -0.31223E-05  1931   0.659E-02    0.258E-02
RMM:  17    -0.445985018782E+03   -0.17722E-05   -0.40082E-05  1985   0.658E-02    0.259E-02
RMM:  18    -0.445985020203E+03   -0.14209E-05   -0.37963E-05  2000   0.635E-02    0.167E-02
RMM:  19    -0.445985020274E+03   -0.71937E-07   -0.24541E-05  1973   0.613E-02    0.562E-03
RMM:  20    -0.445985021102E+03   -0.82724E-06   -0.23660E-05  2007   0.602E-02    0.487E-03
RMM:  21    -0.445985022009E+03   -0.90734E-06   -0.21237E-05  1967   0.591E-02    0.497E-03
RMM:  22    -0.445985022346E+03   -0.33698E-06   -0.16129E-05  1916   0.586E-02    0.516E-03
RMM:  23    -0.445985022676E+03   -0.33029E-06   -0.17239E-05  1957   0.590E-02    0.487E-03
RMM:  24    -0.445985022871E+03   -0.19428E-06   -0.13588E-05  1935   0.585E-02    0.479E-03
RMM:  25    -0.445985023029E+03   -0.15792E-06   -0.14007E-05  1962   0.588E-02    0.470E-03
RMM:  26    -0.445985023405E+03   -0.37684E-06   -0.15469E-05  1962   0.581E-02    0.470E-03
RMM:  27    -0.445985023619E+03   -0.21334E-06   -0.12817E-05  1947   0.570E-02    0.462E-03
RMM:  28    -0.445985023790E+03   -0.17164E-06   -0.11884E-05  1944   0.567E-02    0.465E-03
RMM:  29    -0.445985024108E+03   -0.31762E-06   -0.12454E-05  1988   0.566E-02    0.455E-03
WARNING in EDDRMM: call to ZHEGV failed, returncode =   8  4      9
RMM:  30    -0.445985024586E+03   -0.47801E-06   -0.14120E-05  1981   0.561E-02    0.452E-03
RMM:  31    -0.445985024853E+03   -0.26692E-06   -0.11067E-05  2033   0.555E-02    0.440E-03
RMM:  32    -0.445985024909E+03   -0.55992E-07   -0.96717E-06  2046   0.553E-02
 102 F= -.23466558E+03 E0= -.23465787E+03  d E =-.323133E-01
 BRION: g(F)=  0.726E-02 g(S)=  0.483E-02 retain N=  1 mean eig= 1.14
 eig:   1.139
 bond charge predicted
       N       E                     dE             d eps       ncg     rms          rms(c)
DAV:   1    -0.445605679907E+03    0.37934E+00   -0.11290E+01  2908   0.180E+01    0.188E+00
RMM:   2    -0.445685110564E+03   -0.79431E-01   -0.11399E+00  3129   0.465E+00    0.937E-01
RMM:   3    -0.445699015107E+03   -0.13905E-01   -0.24811E-01  3220   0.239E+00    0.438E-01
RMM:   4    -0.445711188434E+03   -0.12173E-01   -0.13320E-01  3283   0.169E+00    0.254E-01
RMM:   5    -0.445716851928E+03   -0.56635E-02   -0.57804E-02  3458   0.113E+00    0.169E-01
RMM:   6    -0.445719864752E+03   -0.30128E-02   -0.30472E-02  3313   0.789E-01    0.395E-02
RMM:   7    -0.445721170162E+03   -0.13054E-02   -0.13516E-02  3375   0.545E-01    0.314E-02
RMM:   8    -0.445721995287E+03   -0.82513E-03   -0.83902E-03  2955   0.405E-01    0.401E-02
RMM:   9    -0.445722347246E+03   -0.35196E-03   -0.36385E-03  2714   0.285E-01    0.120E-01
RMM:  10    -0.445722578674E+03   -0.23143E-03   -0.23181E-03  2568   0.220E-01    0.738E-02
RMM:  11    -0.445722681701E+03   -0.10303E-03   -0.10395E-03  2506   0.163E-01    0.620E-02
RMM:  12    -0.445722744924E+03   -0.63223E-04   -0.65440E-04  2381   0.131E-01    0.620E-02
RMM:  13    -0.445722772401E+03   -0.27477E-04   -0.29673E-04  2242   0.105E-01    0.656E-02
RMM:  14    -0.445722790384E+03   -0.17983E-04   -0.19674E-04  2232   0.904E-02    0.634E-02
RMM:  15    -0.445722797626E+03   -0.72418E-05   -0.93763E-05  2104   0.789E-02    0.653E-02
